 running on   64 total cores
 distrk:  each k-point on   64 cores,    1 groups
 distr:  one band on   16 cores,    4 groups
 using from now: INCAR     
 vasp.5.3.5 31Mar14 (build Feb 01 2018 12:10:03) gamma-only                     
  
 POSCAR found type information on POSCAR  Ag
 POSCAR found :  1 types and      55 ions
 scaLAPACK will be used

 ----------------------------------------------------------------------------- 
|                                                                             |
|  ADVICE TO THIS USER RUNNING 'VASP/VAMP'   (HEAR YOUR MASTER'S VOICE ...):  |
|                                                                             |
|      You have a (more or less) 'large supercell' and for larger cells       |
|      it might be more efficient to use real space projection opertators     |
|      So try LREAL= Auto  in the INCAR   file.                               |
|      Mind: At the moment your POTCAR file does not contain real space       |
|       projectors, and has to be modified,  BUT if you                       |
|      want to do an extremely  accurate calculation you might also keep the  |
|      reciprocal projection scheme          (i.e. LREAL=.FALSE.)             |
|                                                                             |
 ----------------------------------------------------------------------------- 

 LDA part: xc-table for Pade appr. of Perdew
 POSCAR, INCAR and KPOINTS ok, starting setup
 WARNING: small aliasing (wrap around) errors must be expected
 FFT: planning ...
 WAVECAR not read
 WARNING: random wavefunctions but no delay for mixing, default for NELMDL
 entering main loop
       N       E                     dE             d eps       ncg     rms          rms(c)
DAV:   1     0.501403567521E+04    0.50140E+04   -0.12168E+05  1584   0.611E+02
DAV:   2     0.855964441052E+03   -0.41581E+04   -0.37409E+04  2536   0.163E+02
DAV:   3    -0.833570531784E+02   -0.93932E+03   -0.86225E+03  2000   0.825E+01
DAV:   4    -0.121595135603E+03   -0.38238E+02   -0.37899E+02  1712   0.179E+01
DAV:   5    -0.122179311122E+03   -0.58418E+00   -0.58337E+00  1752   0.261E+00    0.430E+01
DAV:   6    -0.527473343165E+02    0.69432E+02   -0.21419E+02  1584   0.169E+01    0.228E+01
DAV:   7    -0.460849344282E+02    0.66624E+01   -0.10967E+01  1680   0.484E+00    0.143E+01
DAV:   8    -0.361012060016E+02    0.99837E+01   -0.41460E+00  1688   0.361E+00    0.827E+00
DAV:   9    -0.402817120379E+02   -0.41805E+01   -0.12826E+00  1728   0.177E+00    0.612E+00
DAV:  10    -0.494393346683E+02   -0.91576E+01   -0.24675E+00  1696   0.230E+00    0.494E+00
DAV:  11    -0.684073944486E+02   -0.18968E+02   -0.69350E+00  1632   0.285E+00    0.453E+00
DAV:  12    -0.781876486422E+02   -0.97803E+01   -0.37541E+00  1680   0.227E+00    0.357E+00
DAV:  13    -0.879011396228E+02   -0.97135E+01   -0.40990E+00  1632   0.221E+00    0.295E+00
DAV:  14    -0.964798634971E+02   -0.85787E+01   -0.33252E+00  1656   0.190E+00    0.216E+00
DAV:  15    -0.104439674448E+03   -0.79598E+01   -0.23197E+00  1632   0.134E+00    0.162E+00
DAV:  16    -0.110341059341E+03   -0.59014E+01   -0.11812E+00  1648   0.996E-01    0.120E+00
DAV:  17    -0.114876937096E+03   -0.45359E+01   -0.95035E-01  1624   0.927E-01    0.750E-01
DAV:  18    -0.116741279050E+03   -0.18643E+01   -0.14664E-01  1648   0.386E-01    0.528E-01
DAV:  19    -0.118538007420E+03   -0.17967E+01   -0.95659E-02  1624   0.295E-01    0.335E-01
DAV:  20    -0.119498972418E+03   -0.96096E+00   -0.28949E-02  1664   0.259E-01    0.202E-01
DAV:  21    -0.119773038760E+03   -0.27407E+00   -0.58079E-03  1648   0.121E-01    0.139E-01
DAV:  22    -0.119946791784E+03   -0.17375E+00   -0.23595E-03  1648   0.791E-02    0.859E-02
DAV:  23    -0.120062153581E+03   -0.11536E+00   -0.95290E-04  1360   0.423E-02    0.529E-02
DAV:  24    -0.120135230546E+03   -0.73077E-01   -0.47583E-04  1112   0.291E-02    0.390E-02
DAV:  25    -0.120189176754E+03   -0.53946E-01   -0.27527E-04  1112   0.246E-02    0.279E-02
DAV:  26    -0.120210863315E+03   -0.21687E-01   -0.17525E-04  1096   0.146E-02    0.191E-02
DAV:  27    -0.120223289915E+03   -0.12427E-01   -0.93307E-05  1088   0.914E-03    0.136E-02
DAV:  28    -0.120231945502E+03   -0.86556E-02   -0.84027E-05  1072   0.687E-03    0.812E-03
DAV:  29    -0.120235948457E+03   -0.40030E-02   -0.19141E-05  1048   0.439E-03    0.528E-03
DAV:  30    -0.120238732982E+03   -0.27845E-02   -0.68455E-06  1000   0.336E-03    0.305E-03
DAV:  31    -0.120240091309E+03   -0.13583E-02   -0.39332E-06  1016   0.272E-03    0.183E-03
DAV:  32    -0.120240426566E+03   -0.33526E-03   -0.16287E-06   992   0.181E-03    0.108E-03
DAV:  33    -0.120240673659E+03   -0.24709E-03   -0.10342E-06   984   0.133E-03    0.778E-04
DAV:  34    -0.120240822860E+03   -0.14920E-03   -0.55767E-07  1032   0.883E-04    0.473E-04
DAV:  35    -0.120240906569E+03   -0.83709E-04   -0.23185E-07   984   0.574E-04
   1 F= -.12024091E+03 E0= -.12024091E+03  d E =-.120241E+03  mag=     1.0007
 curvature:   0.00 expect dE= 0.000E+00 dE for cont linesearch  0.000E+00
 trial: gam= 0.00000 g(F)=  0.602E-04 g(S)=  0.000E+00 ort = 0.000E+00 (trialstep = 0.100E+01)
 search vector abs. value=  0.602E-04
 reached required accuracy - stopping structural energy minimisation
Application 91426633 resources: utime ~23668s, stime ~122s, Rss ~93588, inblocks ~385465, outblocks ~437561
