   35   35 1000    2
  0.3007238E+03  0.2191519E-08  0.2191519E-08  0.2191519E-08  0.1000000E-15
  1.000000000000000E-004
  CAR 
 unknown system                          
    385      1    252
 
  0.0000000E+00  0.0000000E+00  0.0000000E+00  0.1000000E+01
    1       -9.629507     -9.616390
    2       -9.071428     -9.063722
    3       -9.050075     -9.042624
    4       -8.966070     -8.956984
    5       -8.954775     -8.947613
    6       -8.932446     -8.925617
    7       -8.912928     -8.902095
    8       -8.899048     -8.893103
    9       -8.864803     -8.855030
   10       -8.842893     -8.831412
   11       -8.823335     -8.812149
   12       -8.816210     -8.806304
   13       -8.770930     -8.759743
   14       -8.758737     -8.751635
   15       -8.692061     -8.684527
   16       -8.677643     -8.667693
   17       -8.673921     -8.665493
   18       -8.668179     -8.655477
   19       -8.650713     -8.642884
   20       -8.646323     -8.639360
   21       -8.606884     -8.596756
   22       -8.575617     -8.565142
   23       -8.549393     -8.535956
   24       -8.539704     -8.529372
   25       -8.521624     -8.513246
   26       -8.519111     -8.508136
   27       -8.512527     -8.503291
   28       -8.492586     -8.480823
   29       -8.479038     -8.468931
   30       -8.476835     -8.467343
   31       -8.465367     -8.454964
   32       -8.454226     -8.446830
   33       -8.407224     -8.400972
   34       -8.362206     -8.352427
   35       -8.355560     -8.341663
   36       -8.349751     -8.340423
   37       -8.335094     -8.325658
   38       -8.330176     -8.322043
   39       -8.279816     -8.269688
   40       -8.262349     -8.252147
   41       -8.229398     -8.218024
   42       -8.225399     -8.217119
   43       -8.222989     -8.214377
   44       -8.202259     -8.192978
   45       -8.197156     -8.188872
   46       -8.196230     -8.181987
   47       -8.134763     -8.127750
   48       -8.126551     -8.117771
   49       -8.121271     -8.109697
   50       -8.114303     -8.106252
   51       -8.110891     -8.102340
   52       -8.078019     -8.068698
   53       -8.072346     -8.065133
   54       -8.055532     -8.048866
   55       -8.053394     -8.045246
   56       -8.013417     -8.005672
   57       -7.996215     -7.987622
   58       -7.987047     -7.979865
   59       -7.961246     -7.948758
   60       -7.951142     -7.940669
   61       -7.936405     -7.925404
   62       -7.906015     -7.898899
   63       -7.857359     -7.850379
   64       -7.856494     -7.847257
   65       -7.825230     -7.812510
   66       -7.812353     -7.803571
   67       -7.809155     -7.801292
   68       -7.754360     -7.745168
   69       -7.750752     -7.737167
   70       -7.738552     -7.731827
   71       -7.717063     -7.708065
   72       -7.692674     -7.684699
   73       -7.688835     -7.677263
   74       -7.680632     -7.673268
   75       -7.636825     -7.630031
   76       -7.621987     -7.613530
   77       -7.603646     -7.595227
   78       -7.596428     -7.588511
   79       -7.590562     -7.579053
   80       -7.556517     -7.547885
   81       -7.549167     -7.539011
   82       -7.521206     -7.511275
   83       -7.473154     -7.460739
   84       -7.464611     -7.456827
   85       -7.450708     -7.442988
   86       -7.419872     -7.411054
   87       -7.415714     -7.408530
   88       -7.376667     -7.368154
   89       -7.369269     -7.361849
   90       -7.324080     -7.317041
   91       -7.317896     -7.310317
   92       -7.309455     -7.302003
   93       -7.283504     -7.275500
   94       -7.278899     -7.271062
   95       -7.237514     -7.231007
   96       -7.221964     -7.214184
   97       -7.218435     -7.210375
   98       -7.211182     -7.201678
   99       -7.185001     -7.177512
  100       -7.147409     -7.140052
  101       -7.135254     -7.128015
  102       -7.127245     -7.116808
  103       -7.109701     -7.102307
  104       -7.083519     -7.077476
  105       -7.083050     -7.076130
  106       -7.064558     -7.054645
  107       -7.052610     -7.046416
  108       -7.047320     -7.038294
  109       -7.029185     -7.021486
  110       -7.019888     -7.013607
  111       -7.004468     -6.997057
  112       -7.004089     -6.995960
  113       -6.997421     -6.989869
  114       -6.978939     -6.971901
  115       -6.966375     -6.959292
  116       -6.965903     -6.958621
  117       -6.939372     -6.931045
  118       -6.937790     -6.929386
  119       -6.913059     -6.905924
  120       -6.907440     -6.901139
  121       -6.893338     -6.885901
  122       -6.884090     -6.878582
  123       -6.877281     -6.869015
  124       -6.858454     -6.851047
  125       -6.851563     -6.844991
  126       -6.841275     -6.833816
  127       -6.823967     -6.817457
  128       -6.804039     -6.796628
  129       -6.802717     -6.796246
  130       -6.793793     -6.786635
  131       -6.792873     -6.785503
  132       -6.780338     -6.772339
  133       -6.757379     -6.749135
  134       -6.755383     -6.748379
  135       -6.742462     -6.736028
  136       -6.728691     -6.720733
  137       -6.726558     -6.720034
  138       -6.694508     -6.687937
  139       -6.678431     -6.672432
  140       -6.669768     -6.661435
  141       -6.666035     -6.659859
  142       -6.652770     -6.646686
  143       -6.651898     -6.643120
  144       -6.647516     -6.640407
  145       -6.637505     -6.631937
  146       -6.622789     -6.615343
  147       -6.617889     -6.611763
  148       -6.601855     -6.596395
  149       -6.572071     -6.566469
  150       -6.565844     -6.558623
  151       -6.557815     -6.552294
  152       -6.545237     -6.538002
  153       -6.527741     -6.519412
  154       -6.520070     -6.512094
  155       -6.510561     -6.503969
  156       -6.493441     -6.480864
  157       -6.487345     -6.478984
  158       -6.466781     -6.458488
  159       -6.444075     -6.438335
  160       -6.438471     -6.430319
  161       -6.433807     -6.427578
  162       -6.420622     -6.411647
  163       -6.418425     -6.409300
  164       -6.398640     -6.393281
  165       -6.385428     -6.379642
  166       -6.377182     -6.370672
  167       -6.350158     -6.342975
  168       -6.340063     -6.332753
  169       -6.337744     -6.329245
  170       -6.328527     -6.321914
  171       -6.313015     -6.306756
  172       -6.280763     -6.275477
  173       -6.267816     -6.259674
  174       -6.237898     -6.232369
  175       -6.227400     -6.222434
  176       -6.193346     -6.187120
  177       -6.169552     -6.163635
  178       -6.146795     -6.140725
  179       -6.134696     -6.130393
  180       -5.783021     -5.766699
  181       -5.750588     -5.733561
  182       -5.718808     -5.702733
  183       -5.532008     -5.503761
  184       -5.385375     -5.355197
  185       -5.342555     -5.312653
  186       -4.232570     -4.205869
  187       -4.187201     -4.167782
  188       -4.090682     -4.065319
  189       -4.044228     -4.023577
  190       -3.969052     -3.948671
  191       -3.928560     -3.902205
  192       -3.913215     -3.890528
  193       -3.511940     -3.420534
  194       -3.304424     -3.278099
  195       -3.155861     -3.127102
  196       -2.616069     -2.595901
  197       -2.413311     -2.389119
  198       -2.324400     -2.299025
  199       -2.265686     -2.240749
  200       -2.178018     -2.156391
  201       -2.157825     -2.120933
  202       -2.094264     -2.071021
  203       -1.984479     -1.942114
  204       -1.930114     -1.901891
  205       -1.898952     -1.873562
  206       -1.840771     -1.799219
  207       -1.776639     -1.737181
  208       -1.665878     -1.610996
  209       -1.617031     -1.593661
  210       -1.550641     -1.521484
  211       -0.803426     -0.779810
  212       -0.731092     -0.700810
  213       -0.545359     -0.520815
  214       -0.499334     -0.477364
  215       -0.447103     -0.419557
  216       -0.409094     -0.384976
  217       -0.324819     -0.293454
  218       -0.201618     -0.177101
  219       -0.193538     -0.168497
  220       -0.158733     -0.135589
  221       -0.124981     -0.104146
  222        0.004304      0.045199
  223        0.018031      0.060124
  224        0.166781      0.189016
  225        0.171543      0.218183
  226        0.236507      0.270693
  227        0.307000      0.333265
  228        0.311213      0.361071
  229        0.547834      0.554997
  230        0.735519      0.744703
  231        0.737777      0.756069
  232        0.788794      0.801315
  233        0.822748      0.837539
  234        0.858192      0.875613
  235        0.935407      0.946850
  236        0.991566      1.005091
  237        1.031201      1.044683
  238        1.050145      1.055012
  239        1.083363      1.094173
  240        1.102965      1.108474
  241        1.111310      1.110783
  242        1.122867      1.138733
  243        1.142487      1.155154
  244        1.164383      1.178231
  245        1.185749      1.199415
  246        1.220849      1.226220
  247        1.232616      1.237483
  248        1.310139      1.320700
  249        1.335207      1.341401
  250        1.357879      1.367508
  251        1.370204      1.384778
  252        1.386606      1.412653
