unknown system                          
           1
    21.915193    0.000000    0.000000
     0.000000   21.915193    0.000000
     0.000000    0.000000   21.915193
   Ag
  35
Direct configuration=     1
   0.57179396  0.52572146  0.33388075
   0.60245595  0.64993912  0.30962604
   0.54368009  0.41417575  0.38033162
   0.45582153  0.50555983  0.39300964
   0.49390442  0.62538683  0.37032839
   0.51289616  0.30860642  0.43518809
   0.42222864  0.39158835  0.43921742
   0.67313680  0.58429617  0.38960634
   0.33792451  0.48190245  0.44671406
   0.38157982  0.60434041  0.42449964
   0.65189643  0.47063217  0.43110212
   0.62450185  0.36034928  0.47676122
   0.26534566  0.58720374  0.47160611
   0.55506266  0.55383838  0.46265412
   0.59504121  0.67435006  0.43952754
   0.56949587  0.25680069  0.53317423
   0.52477165  0.43547391  0.50870287
   0.43697596  0.53159010  0.51956894
   0.36110624  0.63088696  0.55185987
   0.38089320  0.42009581  0.56162022
   0.54450684  0.53945533  0.59028866
   0.67156228  0.57770139  0.51261361
   0.48275812  0.43099128  0.63551426
   0.47475924  0.65995201  0.49175909
   0.46415469  0.33061941  0.55352020
   0.30406793  0.51605297  0.56698348
   0.64664745  0.46093396  0.55719303
   0.58343929  0.36060347  0.60281782
   0.46472099  0.64051444  0.61800018
   0.58229505  0.66185724  0.56135012
   0.40027498  0.52789044  0.64305735
   0.57112950  0.63755190  0.68347913
   0.66326682  0.56665831  0.63606901
   0.50236286  0.53701113  0.71332426
   0.60068338  0.46161457  0.67733338
Direct configuration=     2
   0.57181945  0.52579361  0.33387561
   0.60240577  0.64999014  0.30964698
   0.54370287  0.41420750  0.38031908
   0.45576827  0.50545620  0.39285496
   0.49393058  0.62548190  0.37023817
   0.51293585  0.30846759  0.43522273
   0.42220566  0.39160497  0.43922687
   0.67314823  0.58436854  0.38949391
   0.33787934  0.48197030  0.44673373
   0.38146882  0.60441453  0.42446830
   0.65188904  0.47063759  0.43103620
   0.62449692  0.36018975  0.47684779
   0.26537020  0.58727166  0.47158588
   0.55508176  0.55384081  0.46267221
   0.59504782  0.67438217  0.43939437
   0.56952299  0.25676005  0.53322725
   0.52474556  0.43551885  0.50867435
   0.43698647  0.53158657  0.51959909
   0.36099370  0.63090183  0.55179404
   0.38083893  0.42010193  0.56157432
   0.54453519  0.53948445  0.59036044
   0.67158936  0.57777644  0.51260250
   0.48274848  0.43096184  0.63560661
   0.47476241  0.66000656  0.49178229
   0.46427106  0.33048681  0.55355603
   0.30395958  0.51609323  0.56693536
   0.64673364  0.46092359  0.55723657
   0.58347278  0.36047666  0.60283672
   0.46472228  0.64047442  0.61806315
   0.58235620  0.66183497  0.56138603
   0.40023073  0.52795338  0.64308222
   0.57114525  0.63761065  0.68352934
   0.66330196  0.56659575  0.63606488
   0.50235210  0.53693877  0.71333936
   0.60072274  0.46158172  0.67741545
Direct configuration=     3
   0.57189595  0.52601004  0.33386020
   0.60225523  0.65014321  0.30970978
   0.54377121  0.41430278  0.38028148
   0.45560848  0.50514531  0.39239091
   0.49400907  0.62576711  0.36996751
   0.51305493  0.30805111  0.43532665
   0.42213675  0.39165485  0.43925523
   0.67318255  0.58458565  0.38915663
   0.33774382  0.48217384  0.44679274
   0.38113580  0.60463688  0.42437428
   0.65186688  0.47065388  0.43083844
   0.62448214  0.35971116  0.47710751
   0.26544382  0.58747543  0.47152521
   0.55513908  0.55384811  0.46272647
   0.59506764  0.67447848  0.43899488
   0.56960435  0.25663814  0.53338632
   0.52466731  0.43565365  0.50858879
   0.43701801  0.53157599  0.51968956
   0.36065607  0.63094644  0.55159655
   0.38067613  0.42012027  0.56143662
   0.54462026  0.53957181  0.59057579
   0.67167058  0.57800157  0.51256919
   0.48271955  0.43087354  0.63588364
   0.47477193  0.66017024  0.49185187
   0.46462019  0.33008903  0.55366350
   0.30363454  0.51621399  0.56679101
   0.64699221  0.46089247  0.55736720
   0.58357326  0.36009621  0.60289342
   0.46472614  0.64035434  0.61825205
   0.58253966  0.66176814  0.56149374
   0.40009796  0.52814220  0.64315683
   0.57119250  0.63778691  0.68367999
   0.66340737  0.56640806  0.63605249
   0.50231982  0.53672168  0.71338466
   0.60084083  0.46148319  0.67766167
Direct configuration=     4
   0.57204894  0.52644290  0.33382938
   0.60195416  0.65044935  0.30983539
   0.54390788  0.41449334  0.38020627
   0.45528891  0.50452355  0.39146280
   0.49416604  0.62633753  0.36942618
   0.51329309  0.30721814  0.43553448
   0.42199892  0.39175460  0.43931194
   0.67325117  0.58501988  0.38848206
   0.33747277  0.48258091  0.44691077
   0.38046978  0.60508159  0.42418625
   0.65182255  0.47068644  0.43044292
   0.62445257  0.35875398  0.47762695
   0.26559105  0.58788297  0.47140388
   0.55525373  0.55386272  0.46283500
   0.59510728  0.67467111  0.43819589
   0.56976707  0.25639432  0.53370445
   0.52451080  0.43592326  0.50841766
   0.43708108  0.53155483  0.51987048
   0.35998082  0.63103565  0.55120157
   0.38035052  0.42015697  0.56116121
   0.54479040  0.53974654  0.59100649
   0.67183303  0.57845184  0.51250256
   0.48266171  0.43069694  0.63643772
   0.47479098  0.66049759  0.49199104
   0.46531845  0.32929348  0.55387846
   0.30298445  0.51645552  0.56650229
   0.64750935  0.46083022  0.55762845
   0.58377421  0.35933531  0.60300683
   0.46473385  0.64011420  0.61862986
   0.58290656  0.66163448  0.56170917
   0.39983244  0.52851982  0.64330605
   0.57128701  0.63813943  0.68398128
   0.66361819  0.56603268  0.63602770
   0.50225525  0.53628751  0.71347527
   0.60107699  0.46128612  0.67815410
Direct configuration=     5
   0.57235492  0.52730863  0.33376773
   0.60135201  0.65106163  0.31008661
   0.54418121  0.41487446  0.38005585
   0.45464978  0.50328001  0.38960660
   0.49448000  0.62747836  0.36834353
   0.51376941  0.30555221  0.43595014
   0.42172326  0.39195411  0.43942535
   0.67338842  0.58588833  0.38713292
   0.33693069  0.48339505  0.44714683
   0.37913773  0.60597101  0.42381019
   0.65173390  0.47075156  0.42965189
   0.62439344  0.35683963  0.47866583
   0.26588552  0.58869805  0.47116120
   0.55548301  0.55389193  0.46305205
   0.59518657  0.67505637  0.43659792
   0.57009251  0.25590668  0.53434071
   0.52419778  0.43646248  0.50807542
   0.43720722  0.53151251  0.52023233
   0.35863032  0.63121408  0.55041161
   0.37969930  0.42023035  0.56061040
   0.54513067  0.54009599  0.59186790
   0.67215793  0.57935238  0.51236931
   0.48254602  0.43034374  0.63754586
   0.47482906  0.66115229  0.49226937
   0.46671497  0.32770236  0.55430837
   0.30168428  0.51693858  0.56592485
   0.64854363  0.46070574  0.55815096
   0.58417612  0.35781352  0.60323363
   0.46474929  0.63963392  0.61938549
   0.58364037  0.66136717  0.56214002
   0.39930138  0.52927508  0.64360449
   0.57147602  0.63884446  0.68458386
   0.66403983  0.56528191  0.63597813
   0.50212611  0.53541917  0.71365648
   0.60154932  0.46089197  0.67913898
Direct configuration=     6
   0.57236891  0.52770063  0.33381674
   0.60116873  0.65172791  0.30967903
   0.54431612  0.41462617  0.38026983
   0.45421006  0.50342352  0.38873307
   0.49388246  0.62775642  0.36827722
   0.51380348  0.30518945  0.43589913
   0.42188724  0.39174498  0.43961748
   0.67367613  0.58611912  0.38678135
   0.33686353  0.48380431  0.44719855
   0.37935591  0.60640501  0.42334099
   0.65158237  0.47053677  0.42957406
   0.62442941  0.35662337  0.47906300
   0.26549153  0.58931302  0.47088640
   0.55537886  0.55406965  0.46310828
   0.59507659  0.67523482  0.43637034
   0.57045257  0.25491961  0.53476237
   0.52422494  0.43650428  0.50816038
   0.43726909  0.53172750  0.52022074
   0.35846754  0.63137192  0.55022926
   0.37982023  0.42006447  0.56041392
   0.54533399  0.54003441  0.59227689
   0.67231556  0.57971103  0.51194808
   0.48246462  0.42999372  0.63781041
   0.47483131  0.66127616  0.49231252
   0.46704429  0.32757096  0.55462410
   0.30114391  0.51703612  0.56595088
   0.64888591  0.46044334  0.55820074
   0.58444332  0.35766279  0.60370078
   0.46446528  0.63934691  0.61947826
   0.58397234  0.66124250  0.56191987
   0.39879860  0.52953750  0.64351824
   0.57160815  0.63902800  0.68490649
   0.66422408  0.56494932  0.63601305
   0.50212742  0.53503428  0.71378022
   0.60175753  0.46041579  0.67944013
Direct configuration=     7
   0.57240254  0.52864263  0.33393451
   0.60072831  0.65332905  0.30869960
   0.54464031  0.41402952  0.38078404
   0.45315338  0.50376840  0.38663392
   0.49244654  0.62842460  0.36811787
   0.51388536  0.30431770  0.43577655
   0.42228129  0.39124240  0.44007919
   0.67436753  0.58667373  0.38593650
   0.33670214  0.48478777  0.44732282
   0.37988022  0.60744794  0.42221345
   0.65121821  0.47002059  0.42938702
   0.62451586  0.35610367  0.48001743
   0.26454474  0.59079083  0.47022605
   0.55512856  0.55449670  0.46324340
   0.59481231  0.67566365  0.43582345
   0.57131781  0.25254760  0.53577564
   0.52429021  0.43660472  0.50836456
   0.43741777  0.53224413  0.52019289
   0.35807637  0.63175121  0.54979108
   0.38011084  0.41966584  0.55994176
   0.54582256  0.53988645  0.59325974
   0.67269434  0.58057292  0.51093583
   0.48226901  0.42915260  0.63844614
   0.47483670  0.66157383  0.49241622
   0.46783568  0.32725519  0.55538282
   0.29984535  0.51727051  0.56601342
   0.64970842  0.45981276  0.55832036
   0.58508541  0.35730058  0.60482338
   0.46378279  0.63865721  0.61970121
   0.58477009  0.66094291  0.56139083
   0.39759039  0.53016811  0.64331095
   0.57192568  0.63946904  0.68568179
   0.66466684  0.56415008  0.63609697
   0.50213057  0.53410935  0.71407758
   0.60225788  0.45927150  0.68016384
Direct configuration=     8
   0.57214899  0.52871463  0.33427059
   0.60056244  0.65362829  0.30853700
   0.54444704  0.41403650  0.38108329
   0.45308016  0.50410305  0.38661427
   0.49232401  0.62837823  0.36816391
   0.51402179  0.30437831  0.43611825
   0.42255173  0.39138639  0.44014335
   0.67434219  0.58656841  0.38587905
   0.33711924  0.48499364  0.44736303
   0.38000450  0.60744018  0.42220778
   0.65103400  0.47013702  0.42965288
   0.62432591  0.35645008  0.48021830
   0.26447762  0.59105104  0.47004935
   0.55487348  0.55463754  0.46323997
   0.59461496  0.67555387  0.43599729
   0.57140525  0.25234170  0.53584843
   0.52452741  0.43652012  0.50878898
   0.43748362  0.53248805  0.51999178
   0.35837373  0.63169414  0.54971719
   0.38041969  0.41988198  0.55997200
   0.54588512  0.53956662  0.59328245
   0.67269792  0.58031078  0.51073074
   0.48218022  0.42909941  0.63827465
   0.47487760  0.66146993  0.49249589
   0.46797914  0.32764026  0.55541824
   0.29989975  0.51717553  0.56595090
   0.64961757  0.45978510  0.55813646
   0.58516885  0.35731554  0.60499482
   0.46386732  0.63850282  0.61949127
   0.58460395  0.66073761  0.56129467
   0.39747156  0.52990072  0.64312739
   0.57180423  0.63915023  0.68531683
   0.66459691  0.56407217  0.63592141
   0.50206886  0.53404206  0.71391981
   0.60228529  0.45899378  0.68007063
Direct configuration=     9
   0.57143938  0.52891611  0.33521119
   0.60009821  0.65446580  0.30808192
   0.54390614  0.41405602  0.38192082
   0.45287525  0.50503965  0.38655927
   0.49198106  0.62824842  0.36829275
   0.51440363  0.30454794  0.43707458
   0.42330861  0.39178939  0.44032293
   0.67427129  0.58627366  0.38571824
   0.33828659  0.48556981  0.44747555
   0.38035232  0.60741846  0.42219189
   0.65051843  0.47046286  0.43039694
   0.62379426  0.35741960  0.48078049
   0.26428978  0.59177932  0.46955479
   0.55415954  0.55503172  0.46323038
   0.59406265  0.67524664  0.43648383
   0.57164996  0.25176541  0.53605214
   0.52519125  0.43628335  0.50997684
   0.43766791  0.53317070  0.51942892
   0.35920594  0.63153441  0.54951039
   0.38128408  0.42048691  0.56005667
   0.54606020  0.53867148  0.59334602
   0.67270794  0.57957713  0.51015673
   0.48193171  0.42895053  0.63779469
   0.47499209  0.66117914  0.49271886
   0.46838063  0.32871800  0.55551738
   0.30005200  0.51690971  0.56577591
   0.64936330  0.45970770  0.55762177
   0.58540238  0.35735741  0.60547464
   0.46410389  0.63807074  0.61890370
   0.58413895  0.66016304  0.56102554
   0.39713898  0.52915238  0.64261364
   0.57146432  0.63825794  0.68429541
   0.66440118  0.56385411  0.63543004
   0.50189617  0.53385373  0.71347825
   0.60236201  0.45821651  0.67980974
Direct configuration=    10
   0.57111020  0.52912950  0.33558644
   0.59977083  0.65468423  0.30830382
   0.54349584  0.41436154  0.38243760
   0.45281400  0.50519621  0.38641822
   0.49210595  0.62857713  0.36803335
   0.51463129  0.30445525  0.43766051
   0.42380265  0.39225808  0.44039108
   0.67392778  0.58639049  0.38522710
   0.33867294  0.48596878  0.44750818
   0.38003091  0.60767373  0.42219713
   0.65018169  0.47086593  0.43053459
   0.62366328  0.35738638  0.48112194
   0.26458815  0.59205073  0.46944982
   0.55384515  0.55503842  0.46344424
   0.59392219  0.67509902  0.43628069
   0.57179965  0.25178709  0.53632496
   0.52534783  0.43669706  0.51052851
   0.43806724  0.53329718  0.51928196
   0.35918879  0.63143600  0.54929938
   0.38153215  0.42101835  0.55991655
   0.54605246  0.53820639  0.59324659
   0.67265667  0.57912193  0.50996741
   0.48200986  0.42898121  0.63808465
   0.47495599  0.66131507  0.49263909
   0.46869135  0.32873379  0.55562142
   0.29983438  0.51702161  0.56523608
   0.64949232  0.45975582  0.55780966
   0.58561191  0.35681547  0.60571348
   0.46416467  0.63759225  0.61870786
   0.58409355  0.65965939  0.56089299
   0.39721242  0.52872486  0.64245511
   0.57138503  0.63770550  0.68392454
   0.66441519  0.56360358  0.63502073
   0.50163505  0.53355884  0.71317307
   0.60243267  0.45797892  0.67984405
Direct configuration=    11
   0.57069337  0.52939971  0.33606163
   0.59935628  0.65496082  0.30858482
   0.54297630  0.41474842  0.38309199
   0.45273644  0.50539445  0.38623963
   0.49226409  0.62899338  0.36770489
   0.51491958  0.30433788  0.43840247
   0.42442826  0.39285157  0.44047737
   0.67349280  0.58653842  0.38460518
   0.33916216  0.48647400  0.44754950
   0.37962391  0.60799698  0.42220376
   0.64975528  0.47137632  0.43070890
   0.62349742  0.35734431  0.48155433
   0.26496597  0.59239441  0.46931691
   0.55344704  0.55504690  0.46371505
   0.59374434  0.67491209  0.43602345
   0.57198919  0.25181454  0.53667044
   0.52554611  0.43722094  0.51122708
   0.43857290  0.53345734  0.51909587
   0.35916707  0.63131139  0.54903218
   0.38184628  0.42169129  0.55973912
   0.54604265  0.53761746  0.59312068
   0.67259174  0.57854553  0.50972767
   0.48210882  0.42902006  0.63845182
   0.47491027  0.66148719  0.49253807
   0.46908479  0.32875379  0.55575316
   0.29955881  0.51716331  0.56455251
   0.64965568  0.45981674  0.55804759
   0.58587724  0.35612921  0.60601591
   0.46424164  0.63698634  0.61845988
   0.58403606  0.65902163  0.56072515
   0.39730542  0.52818351  0.64225438
   0.57128462  0.63700596  0.68345491
   0.66443293  0.56328633  0.63450242
   0.50130441  0.53318543  0.71278663
   0.60252215  0.45767807  0.67988749
Direct configuration=    12
   0.57034038  0.52959732  0.33615720
   0.59918766  0.65529070  0.30857080
   0.54271967  0.41501602  0.38367535
   0.45248465  0.50581535  0.38586920
   0.49177827  0.62943798  0.36758427
   0.51500656  0.30425765  0.43867671
   0.42492924  0.39326980  0.44066096
   0.67326539  0.58680353  0.38407745
   0.33932637  0.48682480  0.44736392
   0.37972787  0.60859750  0.42180778
   0.64938969  0.47156552  0.43079877
   0.62362524  0.35737841  0.48187101
   0.26495300  0.59274432  0.46915295
   0.55332328  0.55524750  0.46384871
   0.59373084  0.67486616  0.43584429
   0.57227774  0.25156124  0.53715190
   0.52569534  0.43741651  0.51169223
   0.43871955  0.53369904  0.51907038
   0.35903224  0.63126592  0.54895886
   0.38214724  0.42204762  0.55952254
   0.54613911  0.53737744  0.59326770
   0.67262423  0.57823551  0.50920746
   0.48233110  0.42854579  0.63898355
   0.47473005  0.66185678  0.49221874
   0.46920475  0.32877089  0.55607579
   0.29926083  0.51736420  0.56421180
   0.65001648  0.45940758  0.55845748
   0.58618994  0.35570281  0.60652931
   0.46407288  0.63629852  0.61823462
   0.58417007  0.65836774  0.56037563
   0.39701179  0.52778817  0.64190014
   0.57137163  0.63637346  0.68341649
   0.66463513  0.56300162  0.63420366
   0.50105719  0.53287031  0.71274301
   0.60266664  0.45748202  0.68010217
Direct configuration=    13
   0.56960386  0.53000963  0.33635662
   0.59883583  0.65597899  0.30854154
   0.54218422  0.41557437  0.38489251
   0.45195929  0.50669355  0.38509629
   0.49076463  0.63036564  0.36733261
   0.51518804  0.30409027  0.43924891
   0.42597453  0.39414242  0.44104401
   0.67279090  0.58735667  0.38297635
   0.33966898  0.48755674  0.44697671
   0.37994478  0.60985046  0.42098158
   0.64862689  0.47196026  0.43098627
   0.62389193  0.35744954  0.48253176
   0.26492594  0.59347442  0.46881085
   0.55306506  0.55566605  0.46412761
   0.59370269  0.67477035  0.43547046
   0.57287978  0.25103273  0.53815647
   0.52600668  0.43782457  0.51266277
   0.43902551  0.53420334  0.51901719
   0.35875093  0.63117103  0.54880590
   0.38277518  0.42279108  0.55907063
   0.54634038  0.53687664  0.59357444
   0.67269202  0.57758864  0.50812206
   0.48279488  0.42755625  0.64009300
   0.47435400  0.66262793  0.49155245
   0.46945504  0.32880655  0.55674895
   0.29863909  0.51778336  0.56350090
   0.65076929  0.45855388  0.55931271
   0.58684240  0.35481314  0.60760052
   0.46372076  0.63486339  0.61776462
   0.58444969  0.65700342  0.55964638
   0.39639914  0.52696328  0.64116104
   0.57155318  0.63505377  0.68333632
   0.66505700  0.56240757  0.63358032
   0.50054137  0.53221282  0.71265200
   0.60296813  0.45707296  0.68055008
Direct configuration=    14
   0.56920194  0.53038013  0.33606658
   0.59851958  0.65638481  0.30794039
   0.54236567  0.41574669  0.38513059
   0.45148192  0.50731585  0.38453695
   0.49069375  0.63097075  0.36685786
   0.51534387  0.30399701  0.43952811
   0.42598389  0.39435757  0.44129502
   0.67307460  0.58729531  0.38278427
   0.33954740  0.48800955  0.44658083
   0.37940186  0.61043170  0.42079864
   0.64852229  0.47182884  0.43118359
   0.62401389  0.35743614  0.48285361
   0.26467969  0.59395153  0.46829153
   0.55299946  0.55608846  0.46389248
   0.59367932  0.67504240  0.43532189
   0.57303691  0.25082384  0.53842613
   0.52632004  0.43736953  0.51311431
   0.43863310  0.53470816  0.51882728
   0.35852067  0.63131109  0.54863594
   0.38304927  0.42270694  0.55903111
   0.54668405  0.53672085  0.59422604
   0.67313615  0.57739482  0.50756178
   0.48280486  0.42666204  0.64057046
   0.47425097  0.66324272  0.49163555
   0.46964072  0.32880497  0.55709270
   0.29831079  0.51771235  0.56346719
   0.65133874  0.45773968  0.55953515
   0.58716392  0.35481946  0.60820946
   0.46386533  0.63428477  0.61753107
   0.58437149  0.65632505  0.55955420
   0.39590916  0.52649171  0.64109567
   0.57162199  0.63446144  0.68325557
   0.66559452  0.56222453  0.63339677
   0.50017861  0.53195191  0.71295356
   0.60320159  0.45715313  0.68110054
Direct configuration=    15
   0.56906008  0.53051091  0.33596420
   0.59840796  0.65652806  0.30772820
   0.54242971  0.41580752  0.38521463
   0.45131342  0.50753551  0.38433952
   0.49066873  0.63118433  0.36669028
   0.51539888  0.30396409  0.43962665
   0.42598720  0.39443351  0.44138362
   0.67317474  0.58727365  0.38271647
   0.33950448  0.48816939  0.44644109
   0.37921022  0.61063687  0.42073407
   0.64848536  0.47178245  0.43125324
   0.62405694  0.35743141  0.48296721
   0.26459277  0.59411994  0.46810823
   0.55297631  0.55623757  0.46380949
   0.59367106  0.67513843  0.43526945
   0.57309238  0.25075011  0.53852131
   0.52643064  0.43720891  0.51327370
   0.43849459  0.53488635  0.51876025
   0.35843940  0.63136053  0.54857595
   0.38314602  0.42267724  0.55901716
   0.54680536  0.53666586  0.59445604
   0.67329292  0.57732640  0.50736402
   0.48280838  0.42634640  0.64073899
   0.47421460  0.66345972  0.49166488
   0.46970627  0.32880442  0.55721404
   0.29819491  0.51768729  0.56345530
   0.65153974  0.45745228  0.55961366
   0.58727741  0.35482169  0.60842440
   0.46391636  0.63408053  0.61744863
   0.58434389  0.65608560  0.55952167
   0.39573622  0.52632525  0.64107259
   0.57164627  0.63425236  0.68322706
   0.66578425  0.56215992  0.63333197
   0.50005057  0.53185981  0.71306000
   0.60328399  0.45718143  0.68129484
Direct configuration=    16
   0.56902009  0.53085755  0.33570930
   0.59846193  0.65645658  0.30730692
   0.54249613  0.41602138  0.38507596
   0.45115301  0.50772212  0.38412335
   0.49067244  0.63154001  0.36665180
   0.51546435  0.30414491  0.43976159
   0.42579883  0.39458723  0.44133655
   0.67317490  0.58710907  0.38253377
   0.33919553  0.48837786  0.44629097
   0.37905279  0.61096399  0.42072074
   0.64865293  0.47172621  0.43140134
   0.62410562  0.35703260  0.48302610
   0.26422294  0.59418383  0.46790439
   0.55276545  0.55619548  0.46377103
   0.59367531  0.67539098  0.43506945
   0.57302303  0.25095362  0.53850204
   0.52648675  0.43736493  0.51348589
   0.43856500  0.53496286  0.51857904
   0.35823493  0.63159180  0.54848468
   0.38308024  0.42258066  0.55917156
   0.54692048  0.53601917  0.59446433
   0.67363803  0.57716798  0.50755887
   0.48267578  0.42625109  0.64108535
   0.47417631  0.66373259  0.49173595
   0.46992792  0.32845358  0.55725914
   0.29808063  0.51750142  0.56324976
   0.65192237  0.45737233  0.55974274
   0.58740373  0.35490743  0.60868982
   0.46399024  0.63387937  0.61732926
   0.58427381  0.65583426  0.55949257
   0.39576384  0.52602636  0.64138005
   0.57172190  0.63403266  0.68325328
   0.66629408  0.56206316  0.63309334
   0.49965563  0.53160260  0.71330327
   0.60339508  0.45753806  0.68173862
Direct configuration=    17
   0.56900708  0.53097025  0.33562643
   0.59847948  0.65643334  0.30716995
   0.54251772  0.41609091  0.38503088
   0.45110086  0.50778280  0.38405307
   0.49067365  0.63165565  0.36663929
   0.51548563  0.30420370  0.43980545
   0.42573759  0.39463721  0.44132125
   0.67317496  0.58705556  0.38247438
   0.33909509  0.48844564  0.44624217
   0.37900161  0.61107034  0.42071640
   0.64870740  0.47170793  0.43144949
   0.62412144  0.35690294  0.48304525
   0.26410270  0.59420460  0.46783812
   0.55269690  0.55618180  0.46375853
   0.59367668  0.67547309  0.43500443
   0.57300049  0.25101978  0.53849577
   0.52650500  0.43741566  0.51355488
   0.43858789  0.53498774  0.51852012
   0.35816845  0.63166699  0.54845501
   0.38305885  0.42254926  0.55922175
   0.54695791  0.53580892  0.59446702
   0.67375024  0.57711647  0.50762222
   0.48263267  0.42622010  0.64119795
   0.47416386  0.66382131  0.49175906
   0.46999998  0.32833952  0.55727380
   0.29804347  0.51744099  0.56318294
   0.65204677  0.45734633  0.55978471
   0.58744480  0.35493530  0.60877611
   0.46401426  0.63381397  0.61729045
   0.58425102  0.65575254  0.55948311
   0.39577282  0.52592918  0.64148000
   0.57174649  0.63396123  0.68326181
   0.66645984  0.56203169  0.63301575
   0.49952723  0.53151897  0.71338235
   0.60343119  0.45765400  0.68188290
Direct configuration=    18
   0.56898592  0.53096919  0.33568803
   0.59864428  0.65622466  0.30716456
   0.54241549  0.41628897  0.38503231
   0.45117757  0.50774224  0.38413880
   0.49068238  0.63165182  0.36686357
   0.51530600  0.30455847  0.43953614
   0.42577202  0.39480834  0.44128096
   0.67298523  0.58704314  0.38268712
   0.33913187  0.48843170  0.44623792
   0.37913283  0.61100818  0.42082196
   0.64873217  0.47166870  0.43154104
   0.62416576  0.35712930  0.48304814
   0.26405171  0.59404859  0.46797668
   0.55295159  0.55621507  0.46368695
   0.59366793  0.67527698  0.43496048
   0.57302410  0.25099156  0.53854274
   0.52640975  0.43718649  0.51328867
   0.43839430  0.53488215  0.51866390
   0.35818473  0.63154163  0.54842289
   0.38311929  0.42247422  0.55926382
   0.54699216  0.53582994  0.59455129
   0.67363539  0.57712838  0.50745602
   0.48263505  0.42618679  0.64113920
   0.47416903  0.66373860  0.49168333
   0.46992170  0.32858197  0.55733462
   0.29830937  0.51753142  0.56313753
   0.65204147  0.45731849  0.55977198
   0.58738940  0.35523337  0.60879013
   0.46400702  0.63367448  0.61725246
   0.58425357  0.65565261  0.55938372
   0.39565274  0.52592198  0.64127464
   0.57175395  0.63369204  0.68315621
   0.66636875  0.56211118  0.63314656
   0.49966235  0.53161564  0.71343779
   0.60341515  0.45778742  0.68192067
Direct configuration=    19
   0.56898904  0.53096934  0.33567894
   0.59861997  0.65625544  0.30716536
   0.54243057  0.41625976  0.38503210
   0.45116626  0.50774822  0.38412616
   0.49068110  0.63165239  0.36683049
   0.51533249  0.30450615  0.43957586
   0.42576694  0.39478310  0.44128690
   0.67301321  0.58704497  0.38265574
   0.33912645  0.48843375  0.44623855
   0.37911347  0.61101735  0.42080639
   0.64872852  0.47167448  0.43152753
   0.62415923  0.35709592  0.48304771
   0.26405923  0.59407160  0.46795625
   0.55291403  0.55621016  0.46369751
   0.59366922  0.67530591  0.43496696
   0.57302062  0.25099572  0.53853581
   0.52642380  0.43722029  0.51332793
   0.43842285  0.53489772  0.51864269
   0.35818233  0.63156012  0.54842762
   0.38311037  0.42248529  0.55925762
   0.54698711  0.53582684  0.59453886
   0.67365233  0.57712662  0.50748053
   0.48263470  0.42619170  0.64114787
   0.47416827  0.66375080  0.49169450
   0.46993325  0.32854621  0.55732565
   0.29827015  0.51751809  0.56314423
   0.65204225  0.45732260  0.55977386
   0.58739757  0.35518941  0.60878806
   0.46400809  0.63369505  0.61725806
   0.58425320  0.65566735  0.55939838
   0.39567045  0.52592304  0.64130493
   0.57175285  0.63373174  0.68317178
   0.66638219  0.56209946  0.63312726
   0.49964242  0.53160138  0.71342961
   0.60341752  0.45776774  0.68191510
Direct configuration=    20
   0.56895963  0.53101422  0.33563891
   0.59875819  0.65601790  0.30707372
   0.54240242  0.41649987  0.38490556
   0.45119887  0.50781254  0.38419765
   0.49076057  0.63169428  0.36695951
   0.51526200  0.30482602  0.43949589
   0.42564058  0.39497381  0.44121192
   0.67290057  0.58697775  0.38276022
   0.33908244  0.48842877  0.44616600
   0.37912201  0.61095875  0.42093318
   0.64881619  0.47161814  0.43159623
   0.62417988  0.35710725  0.48306252
   0.26396634  0.59391549  0.46803031
   0.55295853  0.55609356  0.46375238
   0.59367092  0.67524794  0.43489675
   0.57294420  0.25123112  0.53848628
   0.52635613  0.43722661  0.51316102
   0.43846867  0.53475986  0.51869330
   0.35817742  0.63155404  0.54839828
   0.38307900  0.42239094  0.55931990
   0.54697569  0.53564054  0.59444453
   0.67364978  0.57709987  0.50757415
   0.48262345  0.42628974  0.64119716
   0.47417985  0.66369056  0.49171451
   0.46995369  0.32856577  0.55733570
   0.29843255  0.51751602  0.56304807
   0.65208448  0.45740567  0.55983818
   0.58735130  0.35539298  0.60877588
   0.46400632  0.63355089  0.61718026
   0.58422164  0.65555641  0.55931815
   0.39572426  0.52587341  0.64134558
   0.57177846  0.63350297  0.68309653
   0.66643419  0.56214589  0.63312738
   0.49959207  0.53160243  0.71349250
   0.60342973  0.45796373  0.68205470
Direct configuration=    21
   0.56895556  0.53102043  0.33563337
   0.59877732  0.65598503  0.30706104
   0.54239852  0.41653310  0.38488805
   0.45120338  0.50782144  0.38420755
   0.49077157  0.63170008  0.36697736
   0.51525225  0.30487028  0.43948483
   0.42562309  0.39500020  0.44120154
   0.67288498  0.58696845  0.38277468
   0.33907635  0.48842808  0.44615596
   0.37912319  0.61095064  0.42095073
   0.64882832  0.47161034  0.43160573
   0.62418274  0.35710882  0.48306457
   0.26395349  0.59389389  0.46804056
   0.55296469  0.55607743  0.46375998
   0.59367115  0.67523992  0.43488704
   0.57293362  0.25126370  0.53847943
   0.52634676  0.43722748  0.51313792
   0.43847501  0.53474078  0.51870030
   0.35817675  0.63155320  0.54839422
   0.38307466  0.42237789  0.55932852
   0.54697411  0.53561476  0.59443148
   0.67364943  0.57709617  0.50758710
   0.48262189  0.42630330  0.64120399
   0.47418145  0.66368222  0.49171728
   0.46995652  0.32856847  0.55733709
   0.29845503  0.51751573  0.56303476
   0.65209032  0.45741716  0.55984708
   0.58734490  0.35542115  0.60877420
   0.46400608  0.63353094  0.61716949
   0.58421727  0.65554106  0.55930705
   0.39573171  0.52586654  0.64135120
   0.57178201  0.63347131  0.68308612
   0.66644138  0.56215232  0.63312740
   0.49958511  0.53160257  0.71350121
   0.60343142  0.45799085  0.68207401
Direct configuration=    22
   0.56894557  0.53106930  0.33554294
   0.59876602  0.65594748  0.30695648
   0.54244050  0.41654068  0.38479288
   0.45115717  0.50796315  0.38418421
   0.49079899  0.63172961  0.36692736
   0.51527226  0.30496521  0.43954027
   0.42553229  0.39499243  0.44116554
   0.67296829  0.58688904  0.38277779
   0.33899436  0.48844603  0.44608356
   0.37906035  0.61095139  0.42097018
   0.64888954  0.47157956  0.43160868
   0.62420836  0.35708144  0.48307645
   0.26390078  0.59388423  0.46798762
   0.55291934  0.55603919  0.46376068
   0.59367561  0.67529396  0.43488422
   0.57287590  0.25140661  0.53842315
   0.52637953  0.43720508  0.51314269
   0.43848185  0.53471966  0.51866507
   0.35817656  0.63160187  0.54839207
   0.38302749  0.42232885  0.55936001
   0.54699732  0.53552203  0.59444909
   0.67374226  0.57707666  0.50767121
   0.48261598  0.42631180  0.64122930
   0.47418338  0.66368109  0.49176801
   0.46995949  0.32853131  0.55734327
   0.29845505  0.51743666  0.56305304
   0.65211682  0.45742057  0.55988760
   0.58734496  0.35548280  0.60879913
   0.46404781  0.63349965  0.61716080
   0.58418631  0.65551050  0.55933360
   0.39575035  0.52581510  0.64146671
   0.57177895  0.63344977  0.68307442
   0.66653468  0.56214789  0.63310069