13
Energy = -56.66898823 eV
Pt 7.673036335495948 8.158160792853842 6.5528123061357615
Pt 7.838183033040886 8.15455887461718 9.072814942827415
Pt 8.390002007420824 8.127952094823387 11.47589833043681
Pt 10.041712590924874 8.170002356927274 7.441720452512159
Pt 10.572978813702944 8.148765568539188 10.000113514798928
Pt 10.70990466429765 8.170005974060897 12.544920082172883
Pt 7.659787359856068 10.68518924219618 6.5572330732263024
Pt 7.827452485573648 10.684882068702532 9.07680071104798
Pt 8.380093953011816 10.710819905596715 11.47958905027148
Pt 10.02970404342923 10.692503137532915 7.446722816379592
Pt 10.56328834393233 10.710494919568038 10.003706308611271
Pt 10.700286561159135 10.685397015678573 12.548799595445754
Pt 12.148670860774901 9.436369154143291 8.333969710893397
