18
Energy = -82.38771869 eV
Pt 12.627311204828606 11.380217303523585 7.6535871799130915
Pt 10.192090556972039 12.063713902912369 7.7421022740950995
Pt 11.505685216268805 11.166253101831009 9.94657011220359
Pt 9.357416380317018 9.706810798697356 7.431988140940758
Pt 10.68871103597505 13.088955823379793 11.407293350765046
Pt 11.65699849369923 9.153194690330364 8.424078208643882
Pt 7.639852001043304 11.70601805253337 7.6032472965760745
Pt 9.18930572652793 7.179781364289145 7.271188935729471
Pt 8.808295854114878 11.964811825637062 10.04489213871624
Pt 9.939049975213534 10.709149350750272 11.91327370593457
Pt 7.963116479012918 8.432514264157279 9.201651538346633
Pt 6.741837275324895 10.568097564948419 9.69996067459617
Pt 10.345889473017028 7.291366942056176 9.544220921793606
Pt 12.908501194655337 7.506470404544859 9.91231583315946
Pt 11.425086047741509 8.324079597396526 11.760077383671788
Pt 8.835585259073019 8.430269779878111 11.623215906494972
Pt 10.037534813973986 8.960403925988858 13.794491862189133
Pt 6.339037541685507 8.569195836590476 11.227149065675448
