16
Energy = -72.09994462 eV
Pt 7.616408794512492 10.885803828385708 12.723092836752096
Pt 9.353339990364654 11.208249780389695 9.529207843302244
Pt 6.8466089836880375 8.855296627784067 8.076895253438678
Pt 11.952282521762891 7.11768463804075 10.7007075127182
Pt 7.277481820981901 9.897999342971962 10.411394222346825
Pt 11.829247323626463 11.335834696808448 9.024725831637332
Pt 9.22620504190944 8.393225310039375 8.899554969319208
Pt 11.776137912537182 9.594108698979152 11.209199906016135
Pt 6.9332441461002094 11.444677606469092 8.329250801173918
Pt 9.322500229271585 9.121480259759988 11.945720021704858
Pt 9.890332286911917 11.698021825163545 11.956446536181392
Pt 9.476715171583587 6.854480043598275 10.88271705502631
Pt 8.982863548878301 10.255689961840762 7.164413028691662
Pt 12.32823785829242 12.107465976935972 11.365464669521474
Pt 11.459969636541262 10.226006652636581 6.766031578745648
Pt 11.729396317272773 8.57700401566517 8.66741304796831
