21
Energy = -96.60407276 eV
Pt 12.299998175329517 9.283337305172324 10.946784222328828
Pt 9.330469319081244 11.680974024869256 9.525064963131182
Pt 10.786027168381537 7.206804978534507 10.61210732797208
Pt 10.515849266391141 13.159284361371482 11.204143738063197
Pt 8.339641439523731 9.818634125886378 7.957782145722245
Pt 8.977219016085595 11.242068103837699 12.050586652861124
Pt 12.897963976742068 10.23922814540597 7.657855417371304
Pt 11.73850984088927 14.805598008812696 12.730010260685086
Pt 7.075542131594219 10.535278714344335 10.288365639427735
Pt 10.205352644415434 8.963331622534549 12.573184852238349
Pt 10.846045967272362 9.121080681621391 8.824235693233259
Pt 12.521768217038215 12.907319397520027 14.15333551969004
Pt 11.589659162879917 11.130995556502333 12.600916212448563
Pt 14.014960908435098 10.807557184941718 9.985414905040626
Pt 10.432175256864442 11.16237911908403 7.198004637425942
Pt 13.913987125658927 12.15283285785196 12.114477938267363
Pt 8.622312626238163 8.51815273266114 10.145835971589493
Pt 12.932919134222258 13.98314558296546 10.632093333805456
Pt 8.707295831449471 6.807707632382422 12.153479811860068
Pt 11.942110671037828 12.106719016784178 9.156556855723014
Pt 7.514334438160404 9.11469392272181 12.51290761670826
