24
Energy = -113.6305473 eV
Pt 6.316437020964739 12.304850356311315 8.262669638200476
Pt 6.3521825340746165 10.264172611586106 9.907433544332783
Pt 7.952633363326231 8.230355479919487 9.880956611934282
Pt 9.764833505980237 8.375739151558633 7.962033824546501
Pt 8.553343337037056 10.59027055605715 8.498386251151192
Pt 8.703004182395409 13.087817227966818 7.676493295909054
Pt 7.867258495071732 12.374786493814184 10.373022612940082
Pt 8.108408705682823 10.147868462925157 11.93098337716325
Pt 9.038404534948702 7.631332942282479 12.255022710603384
Pt 11.659654781505504 9.481331571047882 6.713712296751356
Pt 11.830298561170911 6.802235145361563 8.008687681629763
Pt 10.868285260476581 11.631529546984982 7.774992418202848
Pt 10.237720563611513 6.792907249758725 10.055058572744437
Pt 10.196285791259529 9.717977850820146 10.324988703410284
Pt 12.472544878811025 9.051699111771624 9.090611017436034
Pt 9.896343182441772 12.010724580617062 11.966327066375907
Pt 10.279721411258446 9.756251077934841 13.3252173273773
Pt 10.229755248513513 13.381399354020317 9.678981243522696
Pt 11.609226255959554 8.003579034327052 11.800523544913293
Pt 12.223313998911062 11.460523852309702 10.04176114953513
Pt 12.387281693330063 11.438184683938461 12.735412993957992
Pt 12.833488943999807 9.144882012399817 13.766500124470586
Pt 11.912621544487527 13.66885833845298 11.599022106945311
Pt 13.668366823044636 9.543513998194047 11.285391842440097
