27
Energy = -129.42836208 eV
Pt 9.424656150022882 6.254499531693617 8.757604457460651
Pt 9.864043857544148 8.691848863188488 8.06354329465964
Pt 8.101539676233624 10.517946055863717 8.941817737708854
Pt 8.39060002308113 8.143301053762103 10.217669704544633
Pt 8.672226441494738 13.117067935218946 8.850525949037445
Pt 10.404353549250107 11.208805319356705 7.804648664686773
Pt 12.613450486057936 12.421637132488048 7.522316742365839
Pt 10.959928136463093 7.518700944531655 10.367607972822722
Pt 10.514030874514408 13.868716258541534 7.2311281701118855
Pt 12.35622720374714 9.18024162167164 8.813720495809905
Pt 6.890084245744065 12.38675890309512 10.482027130058428
Pt 7.725334093699761 10.159842665105025 11.580858075469866
Pt 14.230295042118222 10.492704214014077 7.669244000922448
Pt 10.393524013723022 10.395676356531878 10.351994752564432
Pt 14.684577744644901 9.520830154733078 10.051198102487032
Pt 7.471665536259662 12.235113209279087 13.140046185963039
Pt 12.561969477744578 9.13679093778556 11.529760106792427
Pt 9.99524254182246 8.878185094914876 12.48216055234494
Pt 7.937751508670521 9.75548859087448 14.120286091340445
Pt 13.473452244602639 11.845727892988263 9.929149182125759
Pt 11.850034249350712 12.163384482249262 11.93841423184136
Pt 11.26192195062508 13.302065029106805 9.697248319138323
Pt 9.39073796402402 12.725208729692755 11.43674326099178
Pt 14.223535848068092 11.019967813683692 12.31162455832935
Pt 9.933937430350182 11.454490722574086 13.655733063523016
Pt 12.258273096653333 10.256068475723037 13.82008557166844
Pt 10.306113960173413 9.211772587445942 15.074929071101616
