27
Energy = -129.62967406 eV
Pt 13.32791458826374 10.329101840027647 10.871670070729735
Pt 12.090548888008826 9.667288784169518 14.742985814911869
Pt 11.461651188401818 7.725910758595791 12.800624245901785
Pt 12.40110836383291 11.881515856061313 8.916519440195366
Pt 13.135576236638911 7.668639645174244 10.687440326931839
Pt 9.647849981161674 8.988183139413993 14.256843844004232
Pt 12.207432314201055 12.707758366324075 11.440654948477842
Pt 10.709037661989306 11.472462578251383 13.327629752993415
Pt 8.833456896259209 7.570668332646534 12.220751795523233
Pt 8.06376576973425 8.612164617974967 10.006439831009702
Pt 8.492663915787865 10.268926998712 12.241254844411317
Pt 10.860973663809355 9.779607201554006 11.43774076146611
Pt 13.839448044287023 8.822149046008189 12.958617459716002
Pt 10.979715050318744 14.074112366686265 9.646408439918787
Pt 10.524350147111086 7.614975995204775 10.105230163390395
Pt 7.5231393214109685 11.259044585976818 9.995882146574159
Pt 12.329551404521892 9.149643899848655 8.715010259257923
Pt 8.408781280035488 13.857921677803427 9.222882826143904
Pt 10.009558881848104 11.15505929494901 9.474354398081887
Pt 13.387022745786865 11.44222730887052 13.330977746580222
Pt 9.399680515272383 12.71285448333631 11.39984927234253
Pt 9.790292040842303 9.04931759410279 7.98326254576017
Pt 7.1730458288405 9.675211214428876 7.851999829714123
Pt 11.54266950976821 10.622263409456128 6.717823042157155
Pt 7.270100571912187 12.269167455151198 7.5320809105394995
Pt 10.064845270969911 12.742712537605064 7.494699294360413
Pt 8.961520645452335 10.760339481573409 6.179534340369026
