25
Energy = -118.45192739 eV
Pt 10.97362319252523 10.351027445741115 7.939430404847036
Pt 13.513697937542204 9.939388973362018 7.5879824955929225
Pt 10.531932513631226 7.870772346507358 7.904719234908567
Pt 10.196592648521836 12.87222843687963 7.6544243094522795
Pt 12.970047051929836 7.610477542647364 8.479230345766748
Pt 12.736807137892425 12.420603560377419 7.975647736953689
Pt 9.173998765411019 11.391774512669851 9.548478944493699
Pt 12.903855999276475 10.64805122947441 9.939855566560206
Pt 9.769414005728223 8.845090311257763 10.108005195196226
Pt 10.047195162644286 14.0599176787682 9.864672215124848
Pt 12.415543215442638 8.326910173235364 10.829406020433408
Pt 12.484530230780019 13.349023574499613 10.409395881491783
Pt 9.975352538713027 15.087146050579516 12.174553281587123
Pt 12.318977333127476 14.109427954381841 12.875865842725089
Pt 11.021513986297354 11.505978433403742 11.411095146893432
Pt 8.448037082765437 12.945332209363212 11.644031788845327
Pt 8.357930239093857 10.273423606234882 11.742138437690441
Pt 13.363868483580262 11.604991380455068 12.3924105878897
Pt 10.188661915462477 12.935809210301763 13.62808444672102
Pt 10.61435339139964 9.200744306164923 12.536853369867295
Pt 8.057610993221106 11.522506040090786 13.954410500422663
Pt 12.566595949572159 12.277681396274199 14.737380685440094
Pt 13.13206524768359 9.137539929912682 13.14651471040711
Pt 10.32229635642643 10.560269345864278 14.680752665423713
Pt 12.600987790187832 9.83937352040876 15.520149354121804
