23
Energy = -107.82915501 eV
Pt 13.005679260550565 12.068331436776521 12.168695751586863
Pt 14.223639571472381 10.596790939939797 8.671501316693618
Pt 12.328817466454389 12.07573206516961 9.72960317678322
Pt 8.08877472042614 12.723284288558427 12.12832652825518
Pt 9.920655770405501 12.521681621591801 10.26205170828546
Pt 12.89180754201241 9.848532077827342 10.865113205493794
Pt 10.521665290070814 11.86236507676598 12.637084361234033
Pt 11.982256167226103 11.580469890609484 7.320842004988096
Pt 12.790707885687524 7.66261586669131 12.414236265379598
Pt 9.546806752185422 12.431040612908692 7.743939795920701
Pt 7.491334897781145 12.949596155079265 9.391196877809316
Pt 12.367900517791789 8.992370150441717 8.122577132498725
Pt 7.611684598366339 10.671585640842059 8.305947568828275
Pt 6.631803331425976 14.466928972340275 11.135525805173826
Pt 10.837929899619812 9.358946833050267 12.365163579482735
Pt 11.703336979711866 7.5266353891206474 10.12934259471006
Pt 9.192305326111452 9.999871344297933 10.226451668124858
Pt 8.427537743934792 10.193711045336904 12.642939433187944
Pt 9.966208629139837 9.851527790977828 7.762489399483156
Pt 10.360137593822376 7.33157845418428 7.97169524644834
Pt 8.915668606844083 7.473375346321028 10.108111253827076
Pt 10.232412269696695 6.939173274911052 12.350380651175069
Pt 7.786812007390834 7.699738554386602 12.372667502758278
