23
Energy = -107.50801891 eV
Pt 12.27634612306383 11.610826078539311 12.646997094671399
Pt 10.174026781878572 10.06173618790947 12.827595084663296
Pt 12.3645049791777 9.142997883169448 11.646262328874291
Pt 9.891570130858135 12.725933741229788 12.38847586189364
Pt 11.525089476577545 12.868499376065673 10.34417110245594
Pt 13.669164185801721 11.065814616877448 10.412948569768051
Pt 11.16676713413553 10.441507987404501 9.81520136292742
Pt 7.90572040725585 11.147331304409711 11.8678356138703
Pt 10.175827598144188 7.667052076245811 11.476270055923212
Pt 12.580723798123866 11.926892433853723 8.041730977841567
Pt 8.880322244881404 12.6888229393174 9.976232270965038
Pt 7.928711392405213 8.724480992459537 12.958239028665794
Pt 11.79981645961993 8.05840969145832 9.236685929605004
Pt 11.511332384845975 9.53429667377255 6.993745693158533
Pt 8.89897366926621 9.457637609873753 10.232789415654171
Pt 9.991370564103422 11.55863322751771 7.843317529363574
Pt 13.795166964756502 9.52086476547176 8.286427401477635
Pt 7.566893219868747 10.853862807534979 8.618246545577982
Pt 6.199577665108104 9.669297599439242 10.59888225331325
Pt 9.325235237924012 7.448746852681408 8.76007446954118
Pt 7.508204401173907 7.286623566714542 10.773039188482167
Pt 8.958671580395759 9.26627565757504 6.9502515752884415
Pt 6.854393270861294 8.252743350412445 8.325263034887618
