22
Energy = -101.36719347 eV
Pt 8.456254666064561 9.191125741818418 10.6416615
Pt 10.643144452336628 10.380299900058983 11.87581524737188
Pt 10.640171989365458 10.846612458967627 6.914825407412406
Pt 10.635459683990959 7.676635779641475 10.6416615
Pt 9.301708124912935 8.4217144068006 8.289928991812127
Pt 9.301708124912935 8.4217144068006 12.993394008187872
Pt 11.975269934315294 8.410567646260873 8.290396490575258
Pt 11.975269934315294 8.410567646260873 12.992926509424745
Pt 12.951705799917 11.02717537966842 12.795730849252898
Pt 10.643528696481443 12.891365038334454 12.722582795697397
Pt 8.335420375889713 11.041681077832669 12.794486277430742
Pt 12.43771700240757 12.656123408996661 10.6416615
Pt 8.84809268755518 12.668072339267606 10.6416615
Pt 10.643144452336628 10.380299900058985 9.407507752628128
Pt 8.335420375889713 11.041681077832669 8.488836722569259
Pt 12.824731158778949 9.178056866733499 10.6416615
Pt 10.643528696481443 12.891365038334454 8.560740204302597
Pt 12.951705799917 11.02717537966842 8.48759215074709
Pt 10.647578925822678 14.44332451327664 10.6416615
Pt 14.470597412096877 11.124746333363564 10.6416615
Pt 6.814222673886146 11.139636201054138 10.6416615
Pt 10.640171989365458 10.846612458967627 14.36849759258759
