30
Energy = -145.77802227 eV
Pt 14.943036892664393 13.51498938000636 11.921354789223148
Pt 12.362422649710945 14.281917327412947 12.062932294736292
Pt 14.246717272513662 11.96817887697244 7.850344875893395
Pt 11.672806478168626 12.373931629526062 7.946727928675957
Pt 13.312767387869032 9.932500275219983 9.01101882214699
Pt 13.399573812618295 13.422748775012028 9.796850877310286
Pt 10.797103828316683 13.69740728623937 10.05803557623171
Pt 14.090917328520787 11.22164413541491 11.157109607449083
Pt 13.649267622449804 12.897832804363823 14.032657433186078
Pt 9.864901636141164 13.879382378732588 12.668867675306373
Pt 9.125882983698293 12.466145889386354 8.463287792594745
Pt 8.21903740339237 13.583610188568397 10.657520747043183
Pt 10.137723596528561 10.027810383314081 8.66468076557159
Pt 11.45037708772627 14.32011315124642 14.6750757450892
Pt 11.899982419113309 11.98203659588152 15.713546586390557
Pt 12.740964452973442 11.341440118269082 5.861861852546529
Pt 11.935294195883303 9.238899391770843 7.016466139081297
Pt 11.436375981155313 11.77345964320388 13.139545976601067
Pt 13.561980592459518 10.290289136255401 13.512412117925683
Pt 11.467283477214949 11.22760444456167 10.673796208210174
Pt 8.827022502542361 11.061681274894656 10.710850552264185
Pt 9.341547029433919 12.433678429049055 14.947993289252109
Pt 12.595746492779869 9.48820863382823 15.790602838566503
Pt 7.6639045369617875 12.463147449393233 12.938523471555028
Pt 12.794752242799067 8.931591978558776 11.4531437073999
Pt 9.21243779212173 10.36586658385654 13.192345073602203
Pt 10.037184721469224 10.006381718769164 15.706571437716889
Pt 11.25229064885847 8.798247887458254 13.61392299358658
Pt 10.10741221798107 8.840640550670281 11.257144105731838
Pt 11.618894903605188 7.934223869835063 9.270418906781705
