38
Energy = -188.21887348 eV
Pt 16.430596789643182 13.91443242407741 11.122656366643119
Pt 14.459678496428195 14.775898896880392 9.67296487405365
Pt 12.210522574232797 15.300824595540728 10.686640508739536
Pt 10.226609557522137 15.0546241143696 9.036130347042524
Pt 14.715703155804231 12.217570425510706 10.01958161694662
Pt 12.232167469008319 13.119208701758197 9.02417634774179
Pt 9.622736708723561 12.57973095934693 8.525544733520332
Pt 14.220941538193587 14.729864029348334 12.356225439322246
Pt 11.733763970378764 14.574096554082757 13.324560822957483
Pt 15.470939461318707 12.150033861265586 12.828815461977113
Pt 9.842510326355551 15.631061323402664 11.658726364574385
Pt 11.458128773509767 10.998682509177849 7.519012119745516
Pt 13.014308370195996 10.379231651701588 9.449322405092236
Pt 13.000953759457627 12.457356252279002 11.978820539096347
Pt 10.62697405326542 12.957559880211623 11.135591948398547
Pt 8.228810106479086 13.775953219374928 10.532834774791006
Pt 14.583909683057673 10.019340458252445 11.502819840060194
Pt 13.69447501658911 13.203637557043127 14.531914041540734
Pt 9.09084050673078 10.087934546113711 7.973007653397703
Pt 9.169741113080494 13.64686195395197 13.206147264165189
Pt 12.741549528295934 8.202647557176517 10.961879046193005
Pt 11.325156044981954 12.1380795813012 14.305938890618458
Pt 11.990237641318828 10.178064190101864 12.600200105190599
Pt 14.035486431460543 10.52492997989751 14.280185689399753
Pt 7.343275491271165 11.561462570885068 9.481503946975234
Pt 10.523935763024985 10.469675761572596 10.428912031111194
Pt 14.163519849716584 8.059653916677915 13.214434893202105
Pt 11.184662486847222 8.530480639003684 8.832522044059003
Pt 8.19733118517884 11.493124642099778 11.948575995149154
Pt 10.169103761615848 7.502501088358141 11.119717576798468
Pt 8.872651039709725 11.340156008334029 14.438684297964192
Pt 9.39290567914385 9.271307348133291 12.892261697401596
Pt 6.701824659256363 9.214892024729883 8.453622248088593
Pt 10.75291339974212 9.723554177543122 15.142850524112216
Pt 8.082568215162546 9.208476706298844 10.675237848821308
Pt 11.481159809029286 7.659091061834827 13.380514426199712
Pt 12.948137345050684 8.45901817550161 15.469443730703683
Pt 8.744973734557595 7.545975830603761 8.79390737803541
