3
Energy = -8.51294273 eV
Pt 9.877086049720113 9.00833314325963 6.852268587695369
Pt 7.544390057922452 8.874881680823464 10.666546173348774
Pt 9.07179985612837 8.610061139687845 8.974461202726797
