35
Energy = -171.3782876 eV
Pt 9.026301676352242 12.800149315974966 13.302675994621646
Pt 8.908246319749804 11.0911086305065 11.08988048878657
Pt 11.080704096633307 9.794190078543558 10.204710660815593
Pt 9.037320364810657 8.313457968466542 11.461329078359963
Pt 6.641467353414188 11.781499775790742 9.704716530544871
Pt 6.644553941575214 11.939581244449508 12.409243889064983
Pt 12.376506240694942 7.939250658589785 8.70234088476057
Pt 9.790930239232209 7.720277119262811 9.005214205302808
Pt 6.651517773339819 9.511572692564238 11.192777252548293
Pt 11.61266300733752 7.5585721004534765 11.380118455050345
Pt 8.134586373641119 9.910636286967227 13.375898998370253
Pt 13.157344130728145 9.044664036462246 13.001980798192715
Pt 9.807802203200513 10.976074020689355 15.031179391297668
Pt 14.059448368242048 8.551025426426769 10.558213273757266
Pt 12.39226929371703 10.592278185015921 14.992070828083895
Pt 11.60983258321008 13.103194152623994 13.987590116943766
Pt 10.576027785470886 8.650727965625357 13.657286440602595
Pt 15.531619520394969 10.032391899192248 12.22416856081302
Pt 13.262709173619838 11.076045291925213 11.080377200058953
Pt 8.115268817265763 9.684896871211615 8.93567691004951
Pt 10.55073652631305 10.088967047330746 7.692761388763115
Pt 11.090563674793367 10.96478638855893 12.634923357345649
Pt 13.142424100952068 13.766117325493301 11.870200951440015
Pt 9.014472613894663 12.143981665885628 8.506864317809615
Pt 9.783051219100027 14.55518564858458 9.22858812678796
Pt 8.103633965603798 13.661739983673513 10.974304828138466
Pt 14.040225696705548 12.805254730228 9.162824347010291
Pt 14.05747229343969 11.896498388329723 13.51208091617332
Pt 13.128574087424042 10.443343585984692 8.363951435086706
Pt 15.526995476401044 12.622557037500727 11.403473119742719
Pt 15.513366228792053 10.609761635240272 9.57190940678961
Pt 11.591815780248677 12.60328312355158 7.886241398553572
Pt 12.3686104623275 14.73404896480176 9.542286022250753
Pt 10.559426683404567 14.522669506957742 11.912222145883746
Pt 11.087789470930119 12.48648883305905 10.416195780199317
