33
Energy = -161.11980924 eV
Pt 13.061778214424734 9.387033988293636 7.250014735189146
Pt 11.789248605583337 8.428946821455904 9.344174780478543
Pt 10.388554140277424 9.904214932952135 7.519521311922435
Pt 13.770806792538858 10.325374012872249 9.616502974090174
Pt 10.531558314156067 7.555702286979369 11.365802594468425
Pt 11.082040855773915 6.3353909262585555 13.55196562976462
Pt 9.118494945513161 9.055147845934462 9.656427448839635
Pt 11.826331807841182 10.794793747782688 5.447134967733476
Pt 12.725889446449292 12.048220688296576 7.591325104239584
Pt 12.619738166848549 9.252272665469414 11.817811257819484
Pt 11.028248849121114 8.868325503300056 13.999989714654737
Pt 11.306603293839258 11.130522292684134 9.645782261624372
Pt 8.806767070979648 7.435127108038265 13.246749431811923
Pt 7.292850279736651 8.635185142667693 11.531010733825568
Pt 10.238437388926224 12.467953625377083 6.684436681438275
Pt 14.326781695159148 11.323203752570533 11.90522508174929
Pt 8.9297366788164 11.879849211431601 8.868325279392572
Pt 10.096385037270434 10.319739888135844 11.774918540151802
Pt 8.301194480095372 9.96540651663916 13.611166611602277
Pt 7.75750803557501 11.16459411837572 11.040439950769917
Pt 12.906251784828765 10.59658380803788 14.185633264632301
Pt 11.001927355955774 13.746988991647216 8.892866680121182
Pt 13.482511044540859 13.03570301068393 9.857917599530335
Pt 11.830149458285756 12.30368257358485 11.920507374205066
Pt 14.841585534649099 12.39571576764118 14.241804898617666
Pt 10.392072264885982 11.446453730707363 14.248077032354722
Pt 9.432384316833534 13.369064560396351 11.02319372113482
Pt 8.214835605177486 12.568382221451706 13.23353009296139
Pt 12.384548057183869 13.208148641781303 14.36660702792844
Pt 11.773961580058401 14.874261808542286 11.067522919862375
Pt 13.999168670766679 13.990133720072407 12.31667431690944
Pt 10.163058365369842 14.241294514764098 13.42201396482774
Pt 12.314677871002862 15.6796551867769 13.501651930224652
