36
Energy = -177.71250457 eV
Pt 5.97613111882752 11.410841192446876 10.380809176266666
Pt 7.1755364716874315 11.272423140992863 12.637938151046017
Pt 7.169709597803587 9.105807846710857 10.912684614579778
Pt 8.360466746507207 13.613169603144065 13.286053602296814
Pt 8.08827590591097 12.975235647618776 10.763360917244327
Pt 6.224125922629872 9.577903852984067 8.52595299120031
Pt 8.991173442357228 11.307169010609094 14.506995848998354
Pt 8.905936669979873 9.22096289085847 12.919262576421639
Pt 9.303031701415549 10.125780933250107 9.944479428080744
Pt 7.818372699412009 11.787215323775186 8.482797477901228
Pt 8.999640952677527 7.254076327499379 11.160487604434124
Pt 10.102425396971821 11.485600954228762 12.006516056598887
Pt 10.329067176926099 14.100832799128462 11.487939502802734
Pt 10.825090838617657 13.12928181368127 13.983095998146993
Pt 9.911197290861628 13.390021727821376 8.891996527497362
Pt 8.520259567350926 9.169926515970433 7.542399581150766
Pt 11.546678564287827 11.394374757664185 9.823094518665755
Pt 11.25743516258751 9.908393211630626 14.166811885385188
Pt 10.08333341507408 11.253463799274895 7.268466543860817
Pt 12.841819307745522 13.286474637293994 12.354815501362241
Pt 10.046334758453362 7.54871578961256 8.8181459852912
Pt 11.043661893993958 7.695103550644095 12.72129918398869
Pt 12.387950647117671 13.915938146247347 9.86202473524974
Pt 12.817225921462507 10.665478308806659 12.234385141399859
Pt 12.979633103459753 11.884755742897674 14.604380151096986
Pt 12.036555390303832 13.041020246583589 7.282594348658101
Pt 10.840137986195911 8.71392931269741 6.557897779427019
Pt 11.621689848258717 8.950361488296847 10.514703871223547
Pt 11.571799892523565 6.292510980237726 10.535546761262315
Pt 13.423940071384266 8.423663080370602 13.264587879185328
Pt 14.934795223344286 13.1950359479505 10.911470463934746
Pt 12.714789254727817 8.063774256328163 8.388732575651222
Pt 13.970535133584882 12.049718906567465 8.803667107235386
Pt 14.819685531183762 10.595669542760817 10.71625668040927
Pt 12.592277629291011 10.447541202121682 7.454338449344339
Pt 14.063830254663994 8.155495720339564 10.66366641012837
