32
Energy = -156.03513278 eV
Pt 8.975313937535926 9.392787197220743 13.77474931581154
Pt 6.821287807191501 11.960132698696023 9.641235586632462
Pt 6.523612990150302 12.519376668862547 13.08865284832525
Pt 7.609124392556575 10.608649719482454 11.793796022004868
Pt 9.97651339064891 10.8667885156044 15.659465588656218
Pt 9.02685115866687 12.269704960755883 13.632275359974562
Pt 11.844755186612256 9.393673422735725 14.512795681385684
Pt 9.417459376724901 12.030461938090724 9.227751399970916
Pt 10.81769097744704 13.428472134429478 11.873220682558127
Pt 9.862547894758166 14.572708892372802 9.73954962209864
Pt 8.030543688281048 9.743766445341565 9.314459149256384
Pt 10.720755351365836 7.490385463129714 13.030356594573577
Pt 8.861920902873706 8.315956659510055 11.40386961791696
Pt 10.555078731954023 10.365950951066798 12.003142887929334
Pt 8.218383762348408 13.367394405641182 11.362508077191404
Pt 9.102346206976943 7.4682197079901105 8.861582356355767
Pt 12.52867638596953 14.077392275916585 9.949968313379491
Pt 11.89403002479577 11.510884701005763 10.152231227955562
Pt 11.225694424232422 7.629349161091565 10.383602333487245
Pt 11.582651728094573 11.98322180972778 13.907073422988088
Pt 13.318134042646971 12.886104077010357 12.215984572113742
Pt 13.94439359260694 10.700061703393526 13.634465814218236
Pt 14.965663067977806 13.082192315394472 10.105157840892474
Pt 11.175704658943065 13.39026088207207 7.800674704581186
Pt 15.829537600167535 12.192506513924627 12.398115909096019
Pt 10.590016450904551 9.623153475184152 8.682529880438304
Pt 13.86501002529706 13.34459900540206 7.7452426934004635
Pt 13.104937999568294 9.103207755264759 9.372576572449171
Pt 12.775790262947307 8.814024328274764 12.097246312903392
Pt 14.496590267075359 10.467920072674048 11.060285638746757
Pt 12.399386948242956 11.107343163744648 7.592326448845954
Pt 14.824500636460678 10.943789483251637 8.549646842910509
