32
Energy = -156.16341638 eV
Pt 12.35063996357886 7.342445175563103 9.66009747268475
Pt 9.841352839325879 7.832336557402179 10.147642274557201
Pt 14.107556783039774 7.96689255232161 11.547235879287758
Pt 9.269405023494233 9.07985438581085 7.871238043849288
Pt 11.575071718276616 8.454500307025109 12.021610260291007
Pt 13.400568551092327 9.354598900736963 13.757851564187348
Pt 11.86183404594033 8.993143005075886 7.620801785684631
Pt 7.672734167640586 9.342377157943737 9.94833638928406
Pt 9.072079770519197 9.144711574133874 12.298590794792647
Pt 10.90036196814992 10.28054429445046 13.90415415432383
Pt 13.797107189287129 9.528930246690049 9.474673697252982
Pt 6.561192866008932 9.987255055849703 12.256900217084766
Pt 10.857294665572333 10.21887581903731 9.680869312785534
Pt 15.005751135031872 10.366591537225183 11.725237087608352
Pt 7.887816685658787 11.252380595378382 8.035298722512431
Pt 8.339187466705042 10.925686486349505 14.059700124440198
Pt 12.420911379103304 10.978493531812488 11.635233479632982
Pt 15.66639605946439 12.854507272992404 11.907667899417222
Pt 10.511517476167237 11.521682384711877 7.374177739613419
Pt 13.199314669775777 11.252415190486106 7.619662821366143
Pt 9.805529288154712 11.56591689559246 11.601774048190052
Pt 7.384042469412119 11.864756710369123 10.542218443872132
Pt 11.913774313547362 12.765671709624241 9.273962295344631
Pt 6.6654264513834365 12.622422067778993 12.897289191731844
Pt 14.561805114498117 12.096038953251172 9.643149944469862
Pt 14.004259067647764 11.89220082687084 13.747044864321516
Pt 11.628082075635122 12.89300550367571 13.592288526837066
Pt 9.2979371358314 13.09668278885174 9.201780362081971
Pt 9.124627066825045 13.310149516861044 13.509879504626005
Pt 13.191444175817558 13.522940914521358 11.505408502058968
Pt 10.69126568060841 14.010772692867334 11.25839334383553
Pt 8.043729939404173 14.305779531443328 11.270800991668526
