32
Energy = -153.04613497 eV
Pt 12.426882407064518 13.035175090113045 15.588364496401976
Pt 15.148950985342713 9.440305425571038 9.777696938678494
Pt 11.913520279312943 11.596709727076801 7.584729702444536
Pt 12.402468681094136 11.904576379238728 11.62657685071104
Pt 9.39786425182225 12.202994575049974 7.660740747638323
Pt 12.498954382579981 5.961534598571953 11.150053245061176
Pt 7.812427754409509 7.069661614974482 12.218523791297368
Pt 10.321276336614178 12.656373353878314 14.368705767960789
Pt 7.02526773613754 12.746471157695812 10.360624882210681
Pt 12.356002208133075 8.208017769915989 12.57591743450618
Pt 10.609489152017677 11.42503855240405 9.885413123708584
Pt 10.920436802778227 13.887696610067618 12.143240105526752
Pt 13.57647371359179 9.700356880203437 7.819455975281214
Pt 8.46707916418081 13.293471866619587 12.577805910179203
Pt 11.070673788777713 9.18042277523952 8.118568977486698
Pt 9.293191174095394 14.075401861508178 10.163638712801536
Pt 14.074441541015581 10.004775289975054 11.988758197262937
Pt 9.76443817169676 8.44377432467524 13.042944694532578
Pt 14.64948837762087 7.474006899229852 11.45722264642761
Pt 10.076546307315539 6.451970117331047 11.430339314136665
Pt 11.964332550118927 13.751766691738048 9.77659058277257
Pt 7.649901342457773 13.994874269670555 8.179169920830228
Pt 10.429449126114667 8.880284507979892 10.59103759746288
Pt 10.23192585989529 14.60196600438503 7.802934486399488
Pt 8.63897174900751 9.858465170497231 8.156730049885928
Pt 12.62778013418571 13.990699046506125 7.273465314702105
Pt 11.363892471344766 10.40880294924865 13.61220164098659
Pt 8.365043514482174 10.527877293455278 10.65053476776726
Pt 6.471704682948961 11.609074847243887 12.55261835993107
Pt 13.594605173586686 11.639377114171324 13.885910641728584
Pt 12.820372435599634 7.981874321645687 9.599430621883084
Pt 8.838395788180366 10.798450957641046 13.182302544919544
