38
Energy = -188.9946217 eV
Pt 7.847757458973625 12.58411027688383 15.066228817483099
Pt 10.25274445759495 13.460924606913538 14.480607684293226
Pt 8.461621422080148 12.687267771241554 12.526936236996509
Pt 10.516289816207328 14.363088962039198 12.077026118494343
Pt 8.685369403712388 13.908955759244712 10.231635530421368
Pt 9.914264507858052 11.380969356212416 16.03002432957863
Pt 12.670792633254322 14.216266299080745 13.7246165581285
Pt 8.38667944103389 10.259692662702895 14.011732440164026
Pt 9.042383191323683 14.985207947432896 7.8626131660602185
Pt 10.947706861042228 15.294140263447577 9.599483809468573
Pt 7.463986011719627 11.593340280092997 10.359314123955135
Pt 12.423406423756047 12.244383895406969 12.069513654879959
Pt 12.254794856406603 11.80383505150157 14.95571384920192
Pt 12.781319177917542 15.553704330209953 11.373917660506713
Pt 8.19452999348596 9.401155228397633 11.492972895818077
Pt 10.669476556127428 12.108563153457954 10.036677493740306
Pt 8.63701033122352 12.359397935805855 8.06190220944181
Pt 11.003920349158548 9.522049299753824 14.464563518818066
Pt 9.429958589784556 7.90164695708242 13.185641255674653
Pt 10.310390534519808 10.79108269081391 12.228359707517328
Pt 14.612759995877747 13.588621945597513 11.58065265498402
Pt 14.587548917974592 12.26825047740911 13.854769996621986
Pt 13.417020063504145 9.941111565018325 13.549075593059454
Pt 11.100287767820847 13.3767006678811 7.641117772498803
Pt 12.27387819317804 10.058356645686713 10.733256673719023
Pt 13.003165064269426 13.694430347946316 9.47367390610902
Pt 9.245420846537856 10.044393011330222 9.133508581202753
Pt 12.024854494056349 7.7412446784944455 12.852425076328064
Pt 10.544966308566922 10.857160835353708 6.965256439898868
Pt 12.802101420551448 11.416249677208569 8.098657783263473
Pt 15.01566089636396 12.082245081440433 9.30993950090046
Pt 10.352719402596549 8.092953249298665 10.655430781803354
Pt 14.957628468100266 10.869662163393157 11.590564700587437
Pt 14.290371555404585 9.523563060856189 9.225380662502968
Pt 11.563897685544118 8.933921105692152 8.408142315798775
Pt 14.432577319700485 8.334552457840926 11.732370645081469
Pt 13.515099169492196 5.897916762435231 11.897706468879717
Pt 12.815563820123888 7.308806946238623 9.908512792961899
