41
Energy = -205.67091903 eV
Pt 8.115200713140569 8.699372180226257 9.935748340738803
Pt 9.385563877403417 7.744014566601328 12.116746113647766
Pt 7.105289090352675 11.959280387997941 13.647377481720815
Pt 9.146656125267286 11.582200220732368 15.349317564696412
Pt 7.470666994953722 9.696497635105697 12.259056760626107
Pt 9.669460145677922 6.575620383608155 9.768774298218478
Pt 9.24662527512161 8.236960798231692 7.665761982621559
Pt 6.975160984642647 11.08423568832186 9.934672450604598
Pt 8.582157098307226 10.785756349891797 7.650716456947129
Pt 9.242619602306158 9.258466067267813 14.197996205449554
Pt 11.297919942237938 9.242849726841136 11.04206465886615
Pt 9.304163063383179 13.723416186628047 13.71285425577239
Pt 11.247456470826487 9.955642710996061 15.679867676699692
Pt 8.296146960998108 13.166254182866023 8.865632660962584
Pt 11.826519010723057 6.731101632141442 11.465957170547354
Pt 11.547415975619392 12.404290386711398 14.683144026246797
Pt 11.64092000532321 8.266920901873533 13.672180977133122
Pt 9.471778856408436 11.306181736775944 12.59304242926861
Pt 7.885605819382601 13.153030748683001 11.444805673460861
Pt 11.153299495699624 10.032275586810123 7.201260544539603
Pt 9.583837433897974 10.883663572306695 10.012822921841074
Pt 9.64097945646559 15.184691095311482 11.54342714060053
Pt 12.177853188632673 11.173999481832196 9.606153144651989
Pt 10.825546644517544 13.112714559624813 10.626698772152173
Pt 13.367207258833062 10.294150313024163 14.112689717680803
Pt 11.584007336612387 7.90333926642308 8.708102794033579
Pt 13.741324856934538 8.665726176196708 12.071077004170538
Pt 11.790894977883207 14.358817360409294 12.949918882054272
Pt 10.54131210805952 12.633784721437705 7.641825817790707
Pt 13.850399003297229 7.459752588568014 9.81488424710447
Pt 10.23801537367648 14.982911702805216 8.880891406979938
Pt 12.015585007490591 11.468497798828938 12.230018870149472
Pt 13.609953885731032 9.506494662833886 8.147506546282138
Pt 12.147757320559688 15.622053205721196 10.619375683009405
Pt 14.697102379919588 11.225225324719545 11.978720750452775
Pt 13.037407858022533 11.86428246082 7.036156579546177
Pt 13.938170318183806 12.983363492811181 13.757427661768771
Pt 15.380288455593922 9.581255282949725 10.12448344821239
Pt 12.784790798618221 13.861908567170437 8.716572149544596
Pt 13.76289040690201 13.60341353161539 11.193500841165882
Pt 14.606157661426245 11.957693995311981 9.272875131072743
