4
Energy = -12.0382 eV
Pt 8.493069015520314 8.486674602749252 8.473217590309266
Pt 6.403436500254627 7.737166703884179 9.16104799195505
Pt 10.360844347719317 7.9144191183599935 9.733761542722904
Pt 8.657008743233424 9.776098181734378 6.546331481740826
