45
Energy = -225.41759092 eV
Pt 12.788706236541815 10.988905060995288 7.638558261658729
Pt 14.608769269148368 12.1674726398876 9.303632222383213
Pt 14.670582047881622 9.517874398595975 8.757153422992836
Pt 10.818262605134741 9.591677837626046 6.452499455142918
Pt 13.775668732765658 14.506757929876223 10.33948318325041
Pt 12.41217957165576 8.232861897284794 8.167494998046715
Pt 12.394869982372775 13.53244832931129 8.338309392587762
Pt 10.50553818195354 12.217218255522152 7.138381167048039
Pt 10.995650602938333 15.097559562658606 9.91950751181015
Pt 8.29527481690323 9.816715684285253 7.5089698566263765
Pt 12.686366154639753 16.58347226691172 11.459367674172114
Pt 15.183722756249145 10.373197997446514 11.186371169105687
Pt 12.410551008143191 12.32539643574025 10.662912717193388
Pt 12.595135352111553 9.816422126013265 10.385472028255034
Pt 9.87081712017883 7.597347488576582 7.917484378723712
Pt 13.68654056960777 7.453048186393205 10.379314736895267
Pt 10.154286793362107 16.56041126431656 11.971828437224117
Pt 15.12123912937077 12.825917681154746 12.004705953044228
Pt 7.571094070916641 11.18430005459855 9.62362374066963
Pt 14.555521462902686 15.234929629297914 12.762804781314264
Pt 10.369274329733862 10.29622952264668 8.95409177408635
Pt 10.660762487869306 13.527400392252753 12.009902649347717
Pt 10.981996291519872 7.501250661046119 10.346553085262872
Pt 12.581969447105038 10.779965534352225 12.79854409916406
Pt 11.958803341299165 15.178616806144474 13.526566387828533
Pt 8.415617718917494 14.940731514697367 10.959659673572139
Pt 14.833664552525406 8.270637161975781 12.588935181513518
Pt 9.514780940459524 12.912793052720914 9.511468933994962
Pt 8.5803958421981 8.670776487883561 9.963271725893797
Pt 10.287621783897743 10.838273236180763 11.490489296074935
Pt 13.602620666127981 13.205723475169396 14.10408184328017
Pt 14.927118959373779 10.840495697212463 13.817036791185782
Pt 12.21162426300949 7.870270349142628 12.647128748070633
Pt 10.38125716800986 11.782042310648897 13.883167219826616
Pt 12.713671944502124 11.183677017232105 15.513396788860828
Pt 7.522260690676935 10.019932616247146 11.998681798279968
Pt 9.300105942209191 14.82126939817424 13.786565326428036
Pt 11.324182557847351 13.529753714568688 15.444493818726913
Pt 8.012918570111001 12.560393975942901 11.87080869504966
Pt 9.657564965564319 8.467369769304195 12.417890790723845
Pt 13.553437629222914 8.757143386594766 14.803302618688212
Pt 10.990796177071362 9.074627011594606 14.643035586361426
Pt 8.50812891834189 9.943543620083583 14.384271471911317
Pt 10.114698139950807 11.011164908599513 16.30805750763097
Pt 8.12196388498261 12.619997330396819 14.538736777397904
