4
Energy = -12.81583065 eV
Pt 5.9682924412398615 6.360745257753695 5.672138594814138
Pt 6.662738057006971 8.57129470104347 5.579750982469614
Pt 5.985211276961954 4.375002258913312 7.224840195193283
Pt 4.891815403805171 4.202590766153756 5.031789958277814
