43
Energy = -216.01657474 eV
Pt 11.789357421448674 14.525964950101407 8.314821875901643
Pt 12.916272178809699 12.104845914925853 8.439903053941885
Pt 14.327525233818749 14.380064796342822 8.816522799111391
Pt 10.208882884202634 12.210894179673401 8.359234808208607
Pt 15.594014191333455 12.028168700328635 9.143429114101389
Pt 16.833923935712516 14.290333727400098 9.614732442579783
Pt 9.14639880332694 14.55534925203488 8.012521488020075
Pt 10.218470737136188 14.668130482772076 10.422663398098475
Pt 11.401932249001504 9.934032280206807 8.903211642039507
Pt 13.937617438052397 10.134477275202615 9.796552459684586
Pt 12.678094947658913 15.380726555430321 10.749993479767872
Pt 13.861166163498938 12.987686366576028 11.077096657918444
Pt 11.391306541747035 12.207932564426333 10.694604513458602
Pt 15.22682524111557 15.87186712458385 10.998475942673705
Pt 9.07977362128027 10.511689113020282 10.142702474906859
Pt 15.653381886763029 11.08297869983789 11.682183214272579
Pt 12.79246588743234 7.800733218834169 9.924816090124006
Pt 15.103671052725343 8.492964511203203 11.39428143040078
Pt 8.136239491160643 13.049970461905026 9.878491605990103
Pt 16.173537567800604 13.624699437272907 12.029367248544226
Pt 8.670470224356666 14.312490834308482 12.415934503242713
Pt 14.902826133982638 12.460260318257165 13.975292314375135
Pt 13.859735828856959 14.84899784456962 13.109100862790088
Pt 10.152975624815396 8.163796682239697 10.545034047076355
Pt 12.502015840733453 11.854851969392888 13.083055518337273
Pt 11.244631856538607 14.545298925126396 12.798984525666729
Pt 14.36344794391115 9.724054756084119 13.561334908434272
Pt 11.430176881722273 6.05662565323666 11.361101343957872
Pt 6.250160275057994 13.817714784123162 11.616537699622357
Pt 9.913318199274073 11.805627860291015 12.725130365124741
Pt 11.8849246950246 9.80051275471459 11.668825099755878
Pt 7.429648955911283 11.542251482361584 11.943948962166031
Pt 13.015655857923933 7.658369137275011 12.688735719000523
Pt 12.471280380754191 13.54786574889293 15.02915933574968
Pt 13.493958331059314 11.046407983178158 15.640211069014452
Pt 8.85790198613871 9.407419465739794 12.554424125333599
Pt 9.756707167301457 13.653742841844274 14.803514666296948
Pt 10.457593727592982 7.456264768057116 13.314784399128369
Pt 7.067156006890666 13.184467496797794 14.074855769478809
Pt 10.926774341878449 11.311028904474151 15.391723852419984
Pt 12.08878698651489 9.005399163761 14.76906410172839
Pt 8.403040280442152 11.126983498213935 14.758164264931521
Pt 9.524880206900308 8.887375694895589 15.194713571413466
