4
Energy = -9.8850071 eV
Pt 8.644814596143764 9.478891414778833 12.556505364289555
Pt 10.1344321068888 10.520691994823549 13.998903391223964
Pt 11.661573631966597 10.976882700950437 6.336749008458699
Pt 10.884481988539303 10.348836212985644 8.433144559566099
