41
Energy = -205.15574773 eV
Pt 14.138007196335598 9.10113565593891 9.507365169335289
Pt 14.00355288996319 9.722886377473635 6.979276769428536
Pt 14.183509378970065 8.386043542697328 11.951863823771129
Pt 14.875603640567396 10.9260401364634 11.356223593690824
Pt 14.75074382699522 11.548398338988665 8.776292529618223
Pt 11.689310219626265 9.453669851391254 8.219085679685774
Pt 14.199639133121368 12.290471137912723 6.269538805949539
Pt 14.243038634384025 7.923148544236713 14.480980980522268
Pt 11.778930393885252 8.598627551852086 10.701788492113213
Pt 14.618458123632944 10.455260627618797 13.976366021835814
Pt 12.348065221499544 11.380595988928079 9.878686892563438
Pt 14.547309498080487 12.910132437855204 13.143493132615017
Pt 14.765142212153355 13.482440875900926 10.61706649945279
Pt 11.830942241878082 11.120030055147515 6.197670509172051
Pt 14.584278490557018 14.125029947778572 8.108690643688133
Pt 11.879059111652237 8.2185721134575 13.394088413053728
Pt 12.713559073360386 9.590370939775731 15.70865599464202
Pt 12.349109382119687 10.698112817857092 12.667544192266178
Pt 9.491620310179982 9.494322853557282 9.615155482932611
Pt 12.33493061861728 13.162508756339186 11.740767606028388
Pt 12.16389886343452 13.118996039644651 7.854201752608353
Pt 13.01247792075803 12.232256661810021 15.164175979869983
Pt 9.619382121578886 8.877573770290489 12.298574536778847
Pt 10.174010328782122 11.31872017448981 11.356546325813518
Pt 10.242484052460009 9.865216494202981 14.668443587541518
Pt 9.996089219981595 11.59911829331079 8.001342698114225
Pt 12.520271787853446 14.6542904844532 13.930221215626762
Pt 12.687181543583828 14.97662276258006 9.689371253133539
Pt 11.125848303470171 11.235637905047188 16.835340396357754
Pt 10.619685321705745 12.562288673397466 13.620053127383802
Pt 7.353195308706638 9.892928345452008 11.084085568189913
Pt 10.34930595142166 13.651854831554433 9.706789979391756
Pt 8.216822177023634 10.891132441534841 13.359391237955865
Pt 10.991735415099484 13.733665973358763 15.968867973800544
Pt 8.194327223761917 12.094997655584583 9.801123286289231
Pt 8.972856684664913 12.037319723757888 15.613146527301865
Pt 10.999362291785623 15.423251354778563 11.660577109294543
Pt 8.772629774767253 13.93750422516625 11.792830581100528
Pt 6.660414351114875 12.366969839652505 11.890901956505955
Pt 9.819975413644306 15.037176084055258 14.000642770922353
Pt 7.571482014181943 13.546457933419735 14.107523089242598
