48
Energy = -242.84999437 eV
Pt 9.773617044390267 7.906466664928663 13.709012241741725
Pt 11.432424533061639 8.900950421468671 15.41828417668132
Pt 9.603548624535646 12.98641606500475 14.685930870607578
Pt 9.257955849853394 10.386200685285448 14.620557293319088
Pt 14.153326388060366 9.107752904039009 14.50391328510338
Pt 7.343440531483011 11.997417343199025 13.73789784051517
Pt 11.291661744401353 11.520470917386781 16.004382137187097
Pt 10.647102352434338 6.503922527933025 11.629667742010524
Pt 9.034491361472599 8.23100914225972 10.497943440130655
Pt 7.7780279742868315 9.413894359601052 12.649252374617781
Pt 10.396304242584344 15.635498664151473 14.223366335139644
Pt 12.390972337783076 7.847772491384691 13.00531354107817
Pt 10.479345453998256 9.743944769721972 12.061204489064119
Pt 8.281167760854585 14.663581920349655 13.151438307866684
Pt 13.29358863274012 9.995360637345826 16.810770565479135
Pt 11.355122477685823 13.031739663720781 12.575130609355583
Pt 6.121026674925809 13.672068266352642 12.117891357750374
Pt 12.180771185005842 10.869196784375623 13.619929377504688
Pt 14.134360738814388 8.277776837337383 9.493151696800837
Pt 13.947486380751865 11.977846887669317 15.226890272354716
Pt 11.570876915928455 8.174142391798297 9.813940031904282
Pt 14.937013916837905 8.497183641898403 12.112775933733758
Pt 7.6898615693537895 10.387130727170296 10.052365880609404
Pt 5.83925778762452 11.023373470546256 11.811454718022818
Pt 9.030216813440001 11.92688128810758 11.792671723111567
Pt 14.94551735520336 11.136839281885608 12.830126457088745
Pt 13.010041830659462 9.987381843689697 11.259973054777694
Pt 6.353706300125951 12.58547675197515 9.697244826354625
Pt 9.90717319002091 10.030614901835994 8.666092009580087
Pt 15.61816867974304 10.428961376758222 10.344798289562723
Pt 12.122403432601496 13.914446560808834 15.028695312262467
Pt 12.479954994503277 9.85968074379271 7.967722296869411
Pt 11.139262228207391 11.64291005221818 10.415360882779337
Pt 10.410559982409797 15.241410136358692 11.628368016554663
Pt 8.702214632135894 12.371614467892538 8.454508645134707
Pt 8.302564089486085 14.061974568293575 10.536778838774586
Pt 13.889476227949046 13.545857292913967 13.13141931408885
Pt 15.159713618043314 9.955396532459057 7.743381402926611
Pt 13.482280085238331 11.847213092675899 9.379093791150833
Pt 15.207780593028291 13.0310511165173 11.0098788600174
Pt 11.070840064662397 12.039748179732433 7.3510082958479375
Pt 10.619924723733956 13.992389260458715 9.310495842279458
Pt 12.865522117311304 14.482624987754873 10.809520093383737
Pt 15.915265213812365 12.349363244477397 8.475226136424313
Pt 13.637525457763564 11.834687682374586 6.585256738683578
Pt 12.816238498698098 13.961768379762233 8.029373954038014
Pt 14.985425419045677 14.80767533411188 9.143021041446016
Pt 15.122280536139849 13.986918449583927 6.613644757942214
