40
Energy = -200.12760856 eV
Pt 16.957410065080417 12.069523919749422 10.901319823396834
Pt 15.43147778128727 11.935135961527235 13.043746119239412
Pt 15.4435331595507 9.953369339094836 11.219164153526776
Pt 15.046906828843957 13.882667969609496 11.192283776644185
Pt 14.514460058811933 14.304063897790279 13.781628703788183
Pt 14.95450071961511 12.000240949837007 9.22466184104063
Pt 13.791707854727914 9.883045831879231 13.379432367990502
Pt 13.767306461860645 8.029130259785774 11.414050823499318
Pt 13.242383595379298 11.84880458539651 11.45460639138041
Pt 13.3282605379292 12.14071551733424 14.648277029851506
Pt 13.422514534122067 9.836033745360735 9.451937526675605
Pt 11.954641959703553 8.026686211364035 13.480328939886148
Pt 12.926026768801037 13.751101208390024 9.528769855762894
Pt 12.026888480040178 14.572531239107946 14.517712952202935
Pt 12.814611206770186 11.806734603763495 7.756744257481908
Pt 12.755589885984586 14.858308800460962 11.937649152383402
Pt 11.848414142841394 6.147362245701217 11.709169116939435
Pt 11.795781207813858 10.029235413218842 15.094425334369038
Pt 11.30525388814484 10.04106470350218 11.855738756371197
Pt 11.529031720683808 8.10767909209302 10.033716493749026
Pt 9.38875181376221 10.481833405759772 16.127534539059575
Pt 9.62507408865215 7.499202824024648 11.978440573926527
Pt 10.817048619659799 12.02794467676139 10.315382742929282
Pt 11.235897489336127 12.389900491664187 12.997625838991667
Pt 10.882477095217094 12.511215806282662 15.717555889353566
Pt 10.795177022917603 13.747429449876742 8.070756904431905
Pt 10.98484231751435 10.054650791187852 8.469589864536815
Pt 10.742229075339353 15.075953211020455 10.32659366866014
Pt 10.426715579182682 11.691289770429146 6.547021639854121
Pt 10.513355314147775 15.968026457597894 12.77123602173384
Pt 7.6020903462810265 9.123447988263477 12.151330390795843
Pt 9.56005279283291 9.382524146295857 13.801137460761112
Pt 8.32162420699256 11.452994052329434 11.226029241443081
Pt 9.439857912988987 14.417738343840819 14.607210785340202
Pt 9.078373110523508 9.086399978022026 9.93724581402882
Pt 8.772774700834193 11.881228244979669 13.896492312852624
Pt 8.604961982938871 13.555001742539286 9.607529556370476
Pt 8.53152396800524 11.134210152090654 8.50311299820849
Pt 9.09488414325196 13.808684275041369 12.095134161651597
Pt 8.416939701187566 13.315412100260618 7.010572758806548
