43
Energy = -215.55684149 eV
Pt 6.6190801378201565 9.208287452406589 8.763863162364828
Pt 7.514158355466612 11.401346933983358 12.620734678553069
Pt 8.996722050164005 7.996480424349815 9.118332919248727
Pt 7.607342672363104 9.189678090157738 11.220737860729097
Pt 7.717380854349469 13.801263383506935 13.848607281112299
Pt 8.163855525549492 8.648510788496386 6.69153063418809
Pt 6.821086597738266 11.525862180573125 10.047686889064302
Pt 9.335449768298076 11.831158561389138 14.390979869088795
Pt 9.91571991780861 7.710334291916072 11.533959508807094
Pt 9.439535434145876 10.448725637711918 9.787760366216178
Pt 7.472534667983732 13.730530974901717 11.289706736864327
Pt 8.981508150121586 9.403176612604614 13.455943753811624
Pt 11.612489222724204 8.325150361943377 9.484143485568792
Pt 10.22829841169138 14.307957892267792 13.447722877854343
Pt 11.452375605155769 12.798077388328688 15.5526767374243
Pt 10.591201417312181 9.377397395258843 7.265245873847927
Pt 8.140025227200534 11.08560609872078 7.633527427769039
Pt 10.90132104172113 7.662624432566062 14.034413834050676
Pt 10.049378552326676 12.478951208148368 11.359373537245379
Pt 9.718589713958364 15.014861577144112 10.84358401192615
Pt 10.988733637929293 10.12398439776606 11.86725508351692
Pt 11.332191872929796 10.223966623203562 14.689115730218967
Pt 8.756802574038332 13.190843552267541 9.073491330373296
Pt 10.57297019926678 12.000633476403625 7.455702304847271
Pt 12.102418091409815 12.207217576606476 12.972075977461326
Pt 12.57246792185526 7.999971848072608 11.957520951389009
Pt 13.246973494254084 8.574547562656809 14.54025049292356
Pt 12.795913066603 14.59913404703649 14.132584703092476
Pt 11.935228201971963 11.337170137776715 9.689552679720666
Pt 12.209425882713436 14.705504058985747 11.547280706538347
Pt 14.731176791641667 9.430794494226053 12.603329545167293
Pt 13.964085552120212 12.350717104523481 14.750637878206383
Pt 11.462725303464977 13.984093582659 9.114363139720394
Pt 13.096143654098544 9.907946377773786 7.791759504037691
Pt 13.951517096232681 11.562568787677078 11.291161163276838
Pt 13.125768314166685 12.568238490215123 7.620143516843419
Pt 14.016301809267599 9.220031197000738 10.140740466813142
Pt 15.23280775948315 10.171935340583179 15.0561211369524
Pt 14.630513402924691 13.9401112031892 12.418113561998654
Pt 16.01149894924961 11.676305639198315 13.027024721413241
Pt 15.157188993282091 11.362985971937567 8.901710012318892
Pt 14.015692053057306 13.729217223452673 9.844221941504001
Pt 16.41079025966051 12.867097569767447 10.75090610943311
