4
Energy = -13.23293435 eV
Pt 6.5384845339769155 7.268228527697429 7.815456034919926
Pt 10.111996709298381 9.400602224368713 8.382424728931266
Pt 8.9528471215659 7.194025693869262 8.4295764348497
Pt 7.625576530906342 9.366048449812133 8.601447697046646
