50
Energy = -255.74579621 eV
Pt 13.181386236012953 8.08725192759538 13.08879542639109
Pt 11.173965236987629 7.083300765073048 11.825218760533865
Pt 12.710180295839983 9.526827994718081 15.213136381727587
Pt 13.243040373515438 8.122623983369403 10.435850605547728
Pt 9.05064129782947 8.604338163517266 11.565165011504899
Pt 10.509000375028 8.483105896178923 14.041406981284714
Pt 14.91022720500372 11.031195685358451 16.139935429468473
Pt 15.185282918315723 9.026268482551476 14.447835904315538
Pt 10.74320495658889 8.225568863727597 9.493146544850998
Pt 15.156114200480605 9.445574877368104 11.80890454309117
Pt 10.343060609879839 10.576384488515242 15.60747903092351
Pt 12.334497766850276 11.134934435669228 17.256309034323934
Pt 11.364459870833704 9.901986298192863 12.082341276746604
Pt 14.690264544300101 10.001472034440424 9.252525698731642
Pt 12.894476147030637 8.54764586080061 7.843456437883761
Pt 10.682820734596165 9.813113435067262 7.372266295346962
Pt 8.555321381079866 9.666804824568754 9.149812514271575
Pt 9.207576799305228 11.403861506070308 11.709890510343811
Pt 6.964473946243557 10.20633175465918 11.241758198031276
Pt 12.133477025568093 10.659505669727654 9.743657991892432
Pt 13.186094876456574 11.989245787853443 14.462045399196247
Pt 8.419421253479134 10.118277585951315 13.860494249142683
Pt 15.698040345371426 11.438263238574562 13.483389809991115
Pt 13.736291077835302 13.333476697310887 16.94371103644398
Pt 15.72866621660421 13.470144296098445 15.224578160061743
Pt 6.841403400299883 12.155779945400143 13.156983726661146
Pt 13.462968649292463 11.433854064056186 11.840532910006075
Pt 15.22213545689765 13.913607753333386 12.678947663529481
Pt 15.757386817110174 11.993613092696377 10.815826237089395
Pt 9.929395594150813 11.879692208830122 9.346851321499022
Pt 11.299268446749872 13.14575350172697 15.872828506266906
Pt 15.122552090782824 12.46078557354309 8.313326284029324
Pt 13.021208807532098 11.190274640513687 7.363527988282209
Pt 8.392189121448954 11.030767928777932 6.9239537579594845
Pt 9.123523165829846 12.712012077762848 14.526338054374527
Pt 11.230013804877537 12.413107067334604 12.869600774566525
Pt 13.38837202831809 14.560619762338268 14.534415688267268
Pt 7.144641819833033 12.740776295084586 10.583385816746656
Pt 11.911382284466974 13.166331620032576 10.480852337228104
Pt 10.811114960463506 14.766204998729764 13.790372557315939
Pt 14.475960744493001 14.205452296221068 10.175317667772681
Pt 8.121340466159854 13.263576538678794 8.204081566111958
Pt 12.781264706378792 13.709748105419642 8.049205447233087
Pt 8.59184642968875 14.08945088178085 12.378367580085786
Pt 12.920091525104018 15.237398503936845 12.093145617597424
Pt 10.667958928843142 12.499421460270915 6.910910816836735
Pt 8.13295956928142 15.124196748866607 10.0035455741017
Pt 10.474384374070377 15.400154286175233 11.183709755384417
Pt 10.393621979930197 14.63899170144181 8.606106487685016
Pt 12.534663270293269 15.92455852742337 9.558388764657849
