5
Energy = -13.7720823 eV
Pt 14.862884763858622 11.628524473333076 10.661443473943125
Pt 14.032644723421875 12.433280883232936 12.857496025223599
Pt 13.218673067732883 17.458257274661758 17.54723020767274
Pt 10.762894985232803 17.17548604957229 17.342571293508396
Pt 12.023609779278248 15.835262949674542 0.761215267245102
