51
Energy = -261.21858232 eV
Pt 9.571617854926915 8.820149418281042 14.516590438834697
Pt 7.879970084196758 8.20006546534246 12.667295998354545
Pt 7.7203764474664505 10.781143310148083 13.533078715847148
Pt 9.321224934277046 11.32180177938557 15.633519317163811
Pt 10.562662515840758 7.527555459801085 12.222226821979762
Pt 11.158584002977046 9.44722722210843 16.42608363033218
Pt 7.085467662911255 10.138872068382959 11.053997423671946
Pt 11.732406687290979 12.005035374742041 16.823736313648574
Pt 12.236592253352274 8.281353378376911 14.240731725089791
Pt 9.921360029769907 10.182588224440856 12.27290260397316
Pt 8.428154822580092 13.290613095324257 14.031001058937514
Pt 8.966809368740684 8.373976757638035 10.295424198714674
Pt 10.234387489672843 13.921912797180752 15.82567748721788
Pt 7.420198365359886 9.561384431062969 8.498185493323136
Pt 7.342045224135777 12.755790625175996 11.68886772687408
Pt 11.352118580195283 11.401884637209887 14.095986514071702
Pt 14.654729006272998 9.316657683468401 13.456133320218328
Pt 11.491196744513111 7.755411491610904 9.707475110652481
Pt 13.189371321263915 7.473678388572753 11.785887102072325
Pt 13.399526274109705 10.471651254126051 15.452271424505676
Pt 12.49539749934965 9.897958403581049 12.15213871423287
Pt 6.567522472328629 11.919290515789704 9.224974773273779
Pt 10.338517936026614 12.983100498900477 12.36335699068779
Pt 12.859206477803077 13.510652020708045 14.935085964259294
Pt 9.894648940410907 9.182677517355215 7.9799036836292006
Pt 15.709947952474977 8.313889152875861 11.277380191534347
Pt 14.928974277560634 11.975117023680635 13.972767926180913
Pt 11.592149635605029 10.44609709331696 9.70429099524005
Pt 13.956672754513871 11.079896431899547 10.486998505437596
Pt 9.401922481915616 11.723388188745796 10.275273634147025
Pt 12.381341581802417 8.818082779038946 7.360813081399992
Pt 8.836010068436673 11.726402445803751 7.741120569192912
Pt 13.01019123945597 12.524401088706382 12.3534971440814
Pt 11.046468695546581 15.073583435756438 13.641505496649035
Pt 14.001418716384887 8.518962447679618 9.366539666578333
Pt 8.214578974655343 13.91950763654425 9.377987801323876
Pt 8.9165028588863 15.004753728278182 11.78439824870286
Pt 15.641293290281695 13.5168617351083 11.84043412829529
Pt 16.114442498826286 10.935615120764387 11.800645330812742
Pt 11.674778340441442 13.073408644049694 10.124023942525147
Pt 13.593118464411214 15.008870621002323 12.791503908507194
Pt 11.446581352636082 11.324248979585361 7.231562906608922
Pt 16.228781337272274 10.003141998604626 9.2638404355302
Pt 14.09573936630291 10.785059663724095 7.770144920123865
Pt 15.491336008218617 12.60932900875651 9.168150603072569
Pt 13.198611273231233 13.268601828398937 7.918148450957231
Pt 10.536443119108728 13.746771636531205 7.846815407303758
Pt 9.777392512097544 15.914999840696971 9.388907349012758
Pt 11.648465678329996 15.616626587222198 11.142176735706308
Pt 13.972062821411438 14.575383280942523 10.172708437527882
Pt 12.242535086694053 15.664158781271013 8.537339953419766
