53
Energy = -272.12518875 eV
Pt 10.902065864894524 8.152978209396604 7.570796047446281
Pt 12.955237100090956 9.874645129148737 7.867409818108402
Pt 14.585866796050402 11.730480844231476 8.694550499655692
Pt 12.347729801410106 12.65651454844855 7.51163370096038
Pt 14.572164654097183 9.446857411557852 10.05279952986367
Pt 12.854739894052654 7.56002598633627 9.295175002495515
Pt 10.431714645386323 10.69103228731194 7.442027555075399
Pt 9.761851082936106 13.200681849659643 7.247000815463179
Pt 8.531571582794392 9.035272063744593 8.485132954303303
Pt 16.245707486370705 13.570509220709827 9.631107059187718
Pt 14.07769806455156 7.288190464315662 11.549501106831647
Pt 8.195825814520125 11.68049246934566 8.629068552490445
Pt 13.879964385447796 14.455417664623479 8.85124573416774
Pt 10.557564823473765 8.205408571193797 10.121444129285196
Pt 15.872573441831204 11.424557882873408 11.102234132401135
Pt 11.804585044799355 11.30031575451547 9.667760953121045
Pt 6.67919101361594 10.130580991740409 10.022923554462169
Pt 11.263028953531952 14.713534051321304 8.761684530543462
Pt 10.90754214087492 13.294836364526283 11.062679924224257
Pt 15.157268063837328 9.375266618894086 12.70901444275054
Pt 12.38214399101966 9.59431172609064 11.540616836417744
Pt 17.03691670214119 13.456944473808939 12.195998739197933
Pt 8.07250509332775 8.07084280680546 10.91306582740282
Pt 8.752489054205261 14.039783616532272 9.550727224907481
Pt 9.491222828877829 10.672746976018617 10.7722817530661
Pt 13.503784300469595 12.88090613595473 10.917678995757473
Pt 9.932501303873462 16.226928081276593 10.470422385730373
Pt 10.143971799850812 8.860843055282665 12.59074109290607
Pt 13.558499942524213 11.483896320753553 13.048717765408274
Pt 7.478028179951979 12.371154121052216 11.256919909909055
Pt 7.99308618601088 7.655204982500365 13.512842290355538
Pt 12.54509571455778 15.794997092018047 10.789963254628281
Pt 16.06646097812274 11.56402595477839 13.835656649853131
Pt 12.91497855065549 8.189472906913018 13.7628965389296
Pt 7.363134319478044 10.113195362575652 12.591721928743983
Pt 10.918613302120612 11.494674555152798 13.031618372760738
Pt 8.825176953991933 14.438669993850969 12.1637248805792
Pt 14.138697905576098 10.138631378391272 15.178957082178067
Pt 14.971075795854885 15.021216381308182 11.418977882784661
Pt 10.48586809432229 7.4531862910027975 14.683544238781911
Pt 8.484955904390135 12.286878627565219 13.686045552087373
Pt 11.4536109913241 9.864770018899963 15.192612706472723
Pt 15.27038470733409 14.144684707256756 13.900690999552472
Pt 12.284521073962546 13.740348485856359 13.278386484184733
Pt 8.810491995629159 9.76504823230347 14.786515694828395
Pt 14.984340876278887 12.537738018393034 16.03504044812917
Pt 10.820676219653803 16.118202038734 12.878745681852775
Pt 9.859015443053215 11.924453307083208 15.884513025441207
Pt 10.032323163318122 14.22435894315237 14.620249958684166
Pt 13.494184722344462 16.090013677575637 13.303464945363583
Pt 12.405391283161924 12.17612893819644 15.791433905288402
Pt 13.416762088399299 14.540853832699957 15.6517650998098
Pt 11.602552463567335 16.256057474778316 15.3042498395796
