51
Energy = -260.85818494 eV
Pt 9.432585458894513 9.948499202243298 5.795063672374235
Pt 12.051434790934357 9.183053164735233 6.229146678087235
Pt 11.481480068816229 11.80170110148414 6.053701580419867
Pt 7.522351362909252 8.3062311849069 6.694351316183962
Pt 13.64694513047586 10.992272820218759 7.380218950054282
Pt 7.229340878005118 10.753661208273206 7.3306141525312425
Pt 6.9455594185302445 13.262133942897648 8.176539505980212
Pt 10.01374804726619 7.5975544468956535 7.103820148827984
Pt 10.600020722699789 10.333372963577842 8.080301260568307
Pt 9.051583490923385 12.47904157636391 6.758542504098582
Pt 12.47290889384973 6.948495005107744 7.728121721491437
Pt 10.81568113416885 14.390963487795432 6.6634998309550095
Pt 14.47435002991912 8.546222863623463 7.460985928169842
Pt 8.572442744990992 9.222288260781681 9.283611414086572
Pt 9.164341937083277 11.821639969157664 9.616741350550187
Pt 12.790487535781985 13.38215645902347 7.902417250833144
Pt 14.640714794182188 12.419894145144355 9.409876447035844
Pt 11.92315162383575 8.679311538227596 9.564634231702048
Pt 5.9279113120694475 8.919784102640167 8.818149128327159
Pt 6.31927577352242 11.38377997479628 9.781925253560487
Pt 11.82961309515769 11.775842368481968 9.781166403312065
Pt 8.108804611143439 6.623160715240083 8.631038541647294
Pt 14.340836164495375 9.870488470335008 9.728020508913165
Pt 9.176925993387568 14.400754289011239 8.716586671329043
Pt 10.59198781276801 6.28689349290625 9.427288114099966
Pt 11.570338087608974 15.259759927195681 9.189393608281433
Pt 8.576601214379064 5.7674105950153995 11.086303668789743
Pt 10.317915294818212 13.930172947341912 11.139375984615922
Pt 6.666994321398607 7.590916574684866 11.104730667746141
Pt 11.412069129733881 10.056054716436883 11.721687780409242
Pt 8.837386956013074 10.397281429901923 11.775809184399245
Pt 5.61155953524333 6.393054496106731 9.091240877171375
Pt 14.166511601789395 7.292342832384993 9.921469447756104
Pt 7.676347325231102 13.574790997497814 10.85084856924934
Pt 5.067211349303482 9.682905488732047 11.21436083319253
Pt 10.189549322602105 6.293630856436775 13.210305001448768
Pt 13.813195426481572 8.845112071783591 12.125702449592684
Pt 14.022203782748123 11.530219295384926 11.787751014445538
Pt 12.941851215510345 13.841232564710866 10.962120794600706
Pt 9.033089405042725 12.641352679581141 13.014515646771471
Pt 12.232099608217343 6.696517819328871 11.610836113521591
Pt 11.715148128085042 12.519194588674633 12.897756572549234
Pt 6.584754042263847 11.585141354044586 12.394134962655796
Pt 7.493559695583653 6.580472172031374 13.365338648291047
Pt 9.808053412514905 8.04365634835493 11.251994839997602
Pt 6.584967496145671 9.077269213875615 13.242691196491412
Pt 13.155684257057572 10.585096513347635 14.05267662245023
Pt 11.781453987326204 8.344267328925541 13.790586814841715
Pt 7.933339212916876 10.856210159186093 14.63684821439594
Pt 10.552241811071301 10.689229367390434 14.412606898831429
Pt 9.090756152889814 8.556875505564213 13.991915620151609
