50
Energy = -254.77662374 eV
Pt 8.545413784386191 11.692456521912579 14.639064037581505
Pt 8.487772026960663 9.4559678947367 13.231397747667872
Pt 9.947238333572221 8.166216703070205 11.11589874861719
Pt 8.736512102861127 13.899891946408003 13.168004167863174
Pt 9.683874231934196 11.097860309822105 6.937044628301426
Pt 6.219878840364489 11.931770763141278 10.03455129680451
Pt 9.7716198993776 9.488834110304191 15.529619598774051
Pt 11.663128707208898 8.082251917798818 9.073064181988464
Pt 11.234674936693347 8.603128799946857 13.544641332029826
Pt 10.9598067285828 8.850243864941021 6.58676716424575
Pt 9.24797163952945 14.142213972407102 15.675304091963802
Pt 11.029165689484959 12.9512515736114 8.212587641729504
Pt 11.016826818861981 12.453551183565443 13.57051310392691
Pt 10.718836338190666 15.553791246360117 13.843877636226367
Pt 14.299905000008561 7.524753405458464 9.414158916623961
Pt 13.451807562888652 8.438837072749465 7.157210742448884
Pt 12.505776271924105 10.484962738083867 10.458240133157075
Pt 12.319654419846175 10.81339762442306 7.661765607059718
Pt 9.548919658686179 14.93858790700647 8.846961568352729
Pt 9.310437822830735 11.490605066875872 9.692528463675051
Pt 14.572180014212256 14.48659804764338 10.652918347763181
Pt 16.95304018132639 14.532789511068868 11.597334804198436
Pt 15.149618017200238 8.955465182464968 11.311217609656643
Pt 9.320509043446503 9.029937827571986 8.690158206567073
Pt 14.601562183235377 10.126402744496477 8.952464555438508
Pt 7.393022395577727 10.751363146797823 8.084276213256677
Pt 13.655171953025274 12.573559068450797 9.133762989015066
Pt 12.622703670885423 7.971188488238538 11.474017888903731
Pt 13.31249546172423 11.077380723534409 12.907279690601241
Pt 16.076127192111173 12.839259984954644 13.277015506229079
Pt 7.7279353136398745 9.703351865768596 10.700116358648966
Pt 11.302398945310838 12.83601828898588 10.938574884285961
Pt 12.234576352850553 14.89606582314504 9.57741880168922
Pt 13.967574229706562 8.706399805807507 13.687256721432188
Pt 15.256643380297355 11.683633863434354 11.061578401126374
Pt 16.2406410553713 10.238486715145868 13.182726356343728
Pt 12.623303308561818 16.0530684716505 12.03231341109112
Pt 13.106134244100591 13.599279142103741 12.6187086475959
Pt 10.440866649929955 10.53445168841523 11.942023470592952
Pt 8.164681098947392 13.591049601968441 10.63974720373228
Pt 10.155526529748531 15.194411948448932 11.332579927460724
Pt 15.155753250170985 15.472255828337438 13.15145365526149
Pt 14.80599725328405 11.234245375600215 15.055767812322875
Pt 12.390756232064636 10.121342233821029 15.351402735044603
Pt 11.860981882736027 14.12458213069385 15.700315217006903
Pt 7.333191248061835 11.764859009363288 12.362135674863705
Pt 13.226971403331488 12.190965308811094 16.844608745268957
Pt 14.34489209956075 13.8417180055221 15.084661240819337
Pt 13.176391872982574 16.17962505176532 14.647652413856722
Pt 10.651520643355015 11.898090886640823 16.18430679197644
