52
Energy = -266.09466866 eV
Pt 6.834544903194079 11.685284431750881 12.4741003697767
Pt 11.728948602532594 9.844406695557243 10.69294248265729
Pt 6.728926805231391 12.393205228038136 7.14711337196185
Pt 11.058491100878994 13.936488570772863 7.489813305812221
Pt 8.242347695365135 10.644036276607391 10.509810397309941
Pt 8.075340676970772 7.587021326845893 8.199420514848452
Pt 9.958672327099576 5.989014951101213 9.416889968716307
Pt 11.808243715244386 12.318803839120354 13.553980485973893
Pt 14.020445291216703 12.055633733860484 9.53545602600803
Pt 9.073241923478138 11.076522622752858 8.13074744786998
Pt 14.156765097113425 9.374979687863311 9.811549416222151
Pt 13.066785478742379 7.844488103247134 7.849810542251656
Pt 9.024934088424066 12.485170499729307 13.585103256975243
Pt 13.774095930835308 12.976824578389264 7.043830665211981
Pt 12.297041502094698 7.031058599058675 10.150247334012148
Pt 11.80736274327051 11.838500188269574 5.905996471707498
Pt 7.561135005028897 10.873050605248585 5.116629216445245
Pt 8.544598947492105 13.664613154298065 8.547571892549389
Pt 10.569992768607623 14.579074448952962 9.994065893043986
Pt 8.341573308332476 7.4486542888281315 13.460558512154394
Pt 4.938766967839812 10.659481333540741 11.033759348382677
Pt 9.258771836242706 12.668008669802003 6.061847884380986
Pt 8.10144569084933 10.006256884713752 14.319962699923295
Pt 10.331058824847833 5.885423260137876 14.468198654926185
Pt 9.888085366887415 10.178910420856738 12.518932568499507
Pt 13.614382581137868 8.283589645991334 12.204680945075
Pt 12.590241994385568 7.299249892348043 14.547662706438889
Pt 11.535790567621117 11.643428214777515 8.691934858578989
Pt 9.470618264881967 8.377909467111074 10.257021382401073
Pt 6.464181170732673 12.417506601421302 9.763624878860881
Pt 12.36192697145169 5.689708227523826 12.411021610774458
Pt 13.094159866146951 14.499809306777179 9.057596393391723
Pt 10.380929649781896 12.152970911395816 10.93961617565613
Pt 13.651329772900057 10.364471882592943 7.39901894920004
Pt 7.541715705370169 6.847312446110311 10.980296952430797
Pt 10.506578941817063 6.971770103246932 7.008829553678549
Pt 10.132972463142263 10.618799810319437 4.451816152230744
Pt 9.008742678702284 8.92307280359824 6.097408769053968
Pt 10.471395275520532 14.455001133039842 12.636167516228921
Pt 12.689642245481867 13.458188735191417 11.421233759361606
Pt 8.267093968580017 13.714739453053287 11.259982930940165
Pt 10.366426802779865 11.022141761346258 15.352755105757428
Pt 6.566412021291665 8.97169611960933 12.370478023600358
Pt 10.184830322048015 8.427930881719185 15.110285164219729
Pt 6.855509885605765 9.792586682491915 7.409933955567437
Pt 9.661040498823802 5.571284741139024 11.939769845107223
Pt 10.863620606179213 9.210007637535742 8.19989577610349
Pt 10.893772397768336 7.829163826723314 12.431422679455807
Pt 13.645985176203572 11.002995169943528 11.963554479149742
Pt 11.825674138825065 9.126714580298769 5.832291053337302
Pt 12.27950565228135 9.822001589225449 13.972502331239967
Pt 6.357350017521249 8.934482210927841 9.744305559339677
