6
Energy = -22.32890388 eV
Pt 8.483647815983677 6.9062685854141606 9.627121917478105
Pt 10.15194203859021 8.490350346948473 8.638533413427643
Pt 7.202680116148017 6.902193202719965 7.413122163640074
Pt 8.856183867605592 8.505053332563309 6.436834006135723
Pt 6.618046488421694 8.602579479268442 9.221680768107527
Pt 8.289186323756155 10.195241703590764 8.264394381716391
