8
Energy = -30.83130029 eV
Pt 7.850116570189373 12.167296603296814 10.426987530139735
Pt 9.092077744323973 10.252371613117823 9.175941334128732
Pt 10.382903114299296 12.47235048442006 10.173852699614917
Pt 9.54552208397299 10.63591185610085 11.739114570805473
Pt 11.454151811221386 9.903745173636558 10.051077553830908
Pt 11.944164689266026 11.687069984535908 12.019673618781258
Pt 13.565952835717898 9.807917571246605 11.335818034425461
Pt 14.129364893225581 11.487728224601572 13.114130219535996
