15
Energy = -59.29121324 eV
Ge 10.538234855165825 11.231688927604644 13.068163436014974
Ge 8.846936085491519 11.069969363276059 11.111918073258149
Ge 9.173235039311638 8.644354624301885 12.290978772439193
Ge 10.267147562026626 13.409796778865273 10.93708115655058
Ge 8.939783882797943 8.768843635823957 9.621129610204372
Ge 7.0460989133279055 10.883335703646065 9.473647553545218
Ge 11.098496616185756 11.862409620465758 8.637488363293672
Ge 13.272574895177895 8.491053922662385 10.552139189445759
Ge 11.77646849681888 8.825297210872874 12.89393143760151
Ge 10.945048230201099 7.335956548133223 10.820892764968976
Ge 12.531974678795837 13.08602559318761 12.365811962533215
Ge 11.373508409257076 9.318113789593143 8.81826137423129
Ge 12.294898902604075 10.846695981784976 10.97861443625611
Ge 8.748618433353371 12.757403685233417 8.862722260361798
Ge 12.846826262906001 13.32383115399018 9.824012212242517
