26
Energy = -103.37330474 eV
Ge 10.175858821706303 13.763622138474888 11.953650176040876
Ge 8.766536190048717 15.653858414995769 10.756741525138311
Ge 7.9712404589638215 14.688472087495075 13.21001440962453
Ge 14.001603253040752 14.326089484114702 10.361119069757102
Ge 9.785710739754743 13.64951713922737 9.334364269551394
Ge 12.285649167632315 13.318338777734589 8.584984939889424
Ge 12.553524054797947 13.065393432017055 12.072353209714594
Ge 9.172739285776066 12.342271969923546 13.923948705150403
Ge 6.953764753670489 13.872943920871375 10.510055289324074
Ge 11.768046296954976 12.1830859488786 14.414424003236418
Ge 8.336023185311289 11.639808734714222 8.761766776006509
Ge 11.88857672166606 11.393180185333463 10.238605452328509
Ge 14.731591855523405 11.841227616347984 10.32630247788184
Ge 6.671982502825088 12.219011307585438 12.963955560695252
Ge 16.33752244842866 9.829753215352506 10.249061806024647
Ge 13.500689015776409 9.605587416446133 11.418759260384112
Ge 6.370939460827495 11.401598389521673 10.452875491010435
Ge 17.85945327570025 10.250228739611494 12.327141905295557
Ge 11.513609163089162 9.814547431843117 13.291918511960018
Ge 8.950067334863792 11.38971098635474 11.413520630968154
Ge 15.686514396757406 11.538116782768526 12.737921926072993
Ge 14.919648211063208 7.701086399696622 10.546282363599403
Ge 10.436206433438365 9.330650973280159 10.967469224743015
Ge 16.073727725922886 8.480480523322298 12.787120255271896
Ge 12.357500637399015 9.739640126169606 15.652057272543702
Ge 14.264931890106862 9.843719427942979 13.999555861629966
