27
Energy = -107.31102276 eV
Ge 15.298666948747558 9.749902199649481 9.226863620282495
Ge 12.251484989473374 8.276399755415918 12.575700116363544
Ge 16.85890250651926 11.496474474660884 10.678931902761793
Ge 14.592520184892017 8.485259714595289 13.523810887343833
Ge 17.100004523437715 11.171941387691712 8.230094133986471
Ge 12.763746134851905 9.661618301639265 14.861207262339446
Ge 14.981462774365935 10.222923755912909 11.751063579834257
Ge 11.753642236430592 10.203896970731778 10.878432343301265
Ge 10.094349935253089 10.385924544795767 13.511575415393462
Ge 10.652240592313595 8.180247908908383 14.6401675509083
Ge 14.866186674929907 12.586798433538958 8.958965912080306
Ge 12.830640729252309 10.94806379328446 8.517367529071812
Ge 13.461776281203544 12.165985992943096 11.199695806769398
Ge 12.035107230330949 12.005879851766474 14.142721529916193
Ge 13.056169239375912 14.029596485174748 12.996761642082452
Ge 8.458686086063445 12.599594842316746 13.47571618938444
Ge 9.195595592566523 9.907874549570105 11.080936181916984
Ge 11.300118824329594 13.160335596284902 8.488622696813248
Ge 8.813976248642913 13.23905083455142 8.163673982643669
Ge 10.605304313307572 14.18095625656228 12.416783118571182
Ge 7.272643354650257 11.846644654955279 11.338740860720572
Ge 9.798639702423934 12.427706455871666 10.528812035941876
Ge 11.46798549731199 14.08161950539082 15.676545993135049
Ge 9.721903802715135 12.20946021449701 15.788016670952796
Ge 10.048918691880449 15.107409237800415 9.968255198412056
Ge 9.207189235064892 14.743407202800869 14.534646221952574
Ge 7.543759543966761 14.23269962286717 10.127058334656407
