26
Energy = -103.67072578 eV
Ge 13.93995883866827 7.916354145838785 10.864221188704375
Ge 12.339995640360117 15.066897673977438 12.70072645802655
Ge 12.088213537654026 10.178958422887034 11.075347340036307
Ge 13.563344633434124 6.788698867596081 8.417090159271407
Ge 14.704581096129377 10.691362639008899 10.295017317449972
Ge 13.62195483037719 12.369624788616008 12.06770938892998
Ge 10.394137903526447 14.70542855472637 14.256068163956341
Ge 11.017311981843875 12.538427473244509 13.060800830390967
Ge 12.169803639734878 5.821067062988122 10.378605612660735
Ge 14.157466414540274 13.352954972187469 9.556850965482806
Ge 8.201398969448903 10.206248686690458 12.676576693012677
Ge 9.650813650244237 14.71026163015178 11.773505630682575
Ge 13.12389605037128 9.311702806165503 8.580885078492878
Ge 13.994539357521555 11.590966385825887 7.655400883262911
Ge 11.39308444757137 7.885133204566867 12.141341370988872
Ge 10.438124672271773 11.122759445504363 9.248774588479051
Ge 11.028289188207934 7.908568997297047 9.4132557669544
Ge 11.772251012582469 13.812742669155087 10.493386770239994
Ge 9.199885607299933 12.149608652500069 11.162436782566823
Ge 11.705074692017496 12.992240986922042 8.026213915796392
Ge 8.779170297206344 8.0659389440186 11.164455933425131
Ge 8.853339258551312 9.148588679728961 8.555277510716786
Ge 6.336893724083452 11.72110197819844 13.795052097135073
Ge 6.808000014365202 9.627387165400501 10.241181507584846
Ge 6.526610766072571 12.006461762579056 11.212384186646142
Ge 5.5310204521872635 9.715852346629433 12.480153422684616
