22
Energy = -88.38353296 eV
Ge 12.30883443929341 6.757467189899214 12.172110553065048
Ge 11.141321634739057 8.383765946377407 13.793194341953924
Ge 13.29763311857586 8.25680846722533 10.237507140407736
Ge 14.045030884206293 8.644196794005884 12.94149760681647
Ge 10.51837849169218 8.223143162836164 10.944549128037389
Ge 14.314808651585205 13.448108979388339 11.720123064353244
Ge 12.42179946447095 15.064868540769226 15.533931036654248
Ge 12.473131623771856 10.835442577224233 13.181823107448395
Ge 10.083416949261185 10.33554127401139 12.346255785748658
Ge 14.381493751830924 10.604258195577886 11.22256439152038
Ge 11.93209648777114 10.692675044587382 10.505675335311754
Ge 15.291014637783588 15.841635410212554 12.151348571846864
Ge 9.76314532434635 14.256607799473857 12.389564434684592
Ge 8.44047667772751 12.198282048784048 11.879822898638453
Ge 16.182686192542576 16.20795778944062 14.464609587367871
Ge 14.693508350481933 14.057116706986038 14.301914801188872
Ge 12.168265111525384 13.379070560806737 13.580792563390014
Ge 10.27637382383515 12.789799280194826 9.98220563629642
Ge 13.735074885828261 16.911244184568346 14.157212810957345
Ge 12.970991136077714 16.934358411869365 11.493322331977495
Ge 11.23966072201449 16.281302903512497 13.365688990438835
Ge 12.048246417132333 14.509969051005196 11.075298491005755
