24
Energy = -95.66045124 eV
Ge 12.509383268899704 13.82626629105596 6.5151918949604255
Ge 11.881938983619852 11.235444420795055 6.686529160334281
Ge 9.907947548656308 13.07337131454784 6.131797138324601
Ge 13.352800309875054 12.46865467370832 8.68282921412984
Ge 9.2759964035725 10.969936237553737 7.759162280112137
Ge 13.939313285103418 9.160874866262152 11.366324137211711
Ge 8.459659052831865 13.437884707248061 8.796278394513532
Ge 10.967606711822214 13.562628062428772 8.527565048071697
Ge 11.656184642211448 8.094098973812843 9.996954157070418
Ge 12.127860733141054 7.6556766521277995 12.648339763450078
Ge 11.570808066112177 10.647172845356295 9.354954965692619
Ge 15.306085762318654 7.080354152091444 11.688889067418739
Ge 9.151533355543457 11.367272507734592 10.42350723418343
Ge 14.325156047360972 7.732713104044414 13.862177917004221
Ge 9.18363383543069 13.727595226455064 11.674130330089339
Ge 11.434003467867647 12.280387334055126 11.627449517298341
Ge 13.414439515536435 10.16667178886626 13.638980149047256
Ge 7.026383769271489 10.033569919053669 11.177354630953948
Ge 9.66377320995866 8.81496487017214 11.526760084779623
Ge 7.086196921929215 12.232734926498315 12.63618168662407
Ge 10.856983854548284 10.340850259392194 13.246238026237837
Ge 7.5798471568405175 7.851523105041405 12.532017904417287
Ge 9.489185477940259 12.337079783426391 14.043754550699793
Ge 7.974690929322471 10.10288318185363 13.80164167372607
