21
Energy = -83.44056904 eV
Ge 12.237707944115243 5.67531185644479 9.499127498603956
Ge 10.68292962274707 7.495510656362458 10.202153383774567
Ge 14.272529818136517 7.092803232398842 8.26030621377265
Ge 8.499658543599162 8.61699948279953 9.433134066293192
Ge 9.821359190004783 9.454832736132689 12.052253230407139
Ge 10.641860829003827 9.384612900647797 8.231635090569023
Ge 11.864507987713251 7.311427478210768 7.4916285510175795
Ge 7.564704187855617 10.76780731982742 12.851405022845183
Ge 8.227864515011097 10.965342822096238 10.452112348189347
Ge 12.93173738690387 8.615783326296551 9.691983542722742
Ge 9.340336351853493 12.550328677403597 13.006516335380102
Ge 9.39670892214517 12.786516094971793 8.969617088910347
Ge 11.76722143344101 11.76097619793286 8.393419633170025
Ge 10.722061834381986 12.694088295964871 15.118816147348488
Ge 11.182001815182643 11.436750580250616 10.85591970421128
Ge 10.361522988673121 13.983010088789303 10.980299228829294
Ge 12.152288879167132 11.373257336707569 13.376866234318742
Ge 10.093025987278544 15.067447914438471 13.576488714767818
Ge 12.108200150228319 15.553252778037738 11.811971810486487
Ge 13.298248486540396 13.093701445281416 11.56655121976407
Ge 12.61620340044871 14.087048365869784 13.96699441999129
