29
Energy = -115.43951198 eV
Ge 17.073350926124164 15.209702112099835 13.527625682351445
Ge 15.856644152787448 15.895619696396237 15.61283796609576
Ge 15.619296334275349 13.309744822488765 14.896936689569491
Ge 13.488674821162428 15.13422128022862 15.56496044901581
Ge 15.528072024308116 11.034665906846664 8.633475495401246
Ge 14.575122481602655 15.161559430722937 13.083826808578626
Ge 13.019023850644086 10.39812818535808 9.651036113319579
Ge 13.487582458881894 12.719961769400411 16.67380971309362
Ge 14.779498306866488 12.454259846083147 10.950764080853899
Ge 12.350785105866626 13.1120022990265 10.163578582414585
Ge 13.094643113262094 12.895133154952553 13.877177706494205
Ge 13.29530169539293 10.46000650325228 15.405659589784058
Ge 13.294816847330129 10.931366972211366 7.1440440691472595
Ge 14.879631764849153 9.785814480687366 11.270419191135634
Ge 14.3281339769491 13.26409788203786 8.164592362639908
Ge 11.212387790033455 9.386260268830718 16.723186768172777
Ge 10.86294762533465 12.007700870830702 16.306224539622495
Ge 10.327367330785183 13.81273829060227 11.735368366862506
Ge 12.914499875877524 10.575850648366737 12.75792585733686
Ge 10.899593447627073 14.183724710618176 14.297671273842948
Ge 10.729475906018838 11.067248886087949 11.335305615776674
Ge 11.684796425099536 13.022402564666878 7.478246209552516
Ge 8.811173515990737 10.390765373672348 15.783786260976356
Ge 8.54184171436829 14.485665022625064 10.023451826753474
Ge 10.792489481285685 9.346584546648026 14.203417632354794
Ge 9.14395828055147 12.252029612171583 13.970084698189954
Ge 10.883683191728172 15.040825511186219 9.127886306890076
Ge 9.75913660338201 12.410726351552007 9.179898274185575
Ge 8.751189032513222 10.001371480603378 12.7848291543573
