34
Energy = -121.47086713 eV
Ge 16.455864369928243 14.086083696630226 16.857304852029095
Ge 7.607499632332718 15.783692462114146 16.414130691327014
Ge 7.824219900212936 16.999645743124915 10.503174846569106
Ge 15.332545544729703 11.107218190489451 11.066830123613688
Ge 16.334704100040117 9.047826620112025 13.049844930036697
Ge 13.635168658186107 9.34538767800122 18.801407104596226
Ge 14.745636625922845 16.517293585968062 7.784794409270542
Ge 18.851055968053537 15.479684123569761 15.569608683872465
Ge 9.23599131096647 9.07501949805987 16.505401899601665
Ge 13.236558641343827 10.381164925001709 14.228362354133491
Ge 8.821527343533813 11.86200275959987 14.606676819063383
Ge 13.631232040716384 11.608871799375008 16.99200412368768
Ge 11.34791007360077 8.02280972660591 14.620648092589956
Ge 8.255398358500523 14.853547832326779 13.72757480361732
Ge 10.346549540681167 12.08660201823129 17.179652039265033
Ge 7.928857638853595 14.523263058194477 8.796838197939698
Ge 17.26182410020334 10.041067978125655 8.944271853480311
Ge 13.786864018418083 17.825079991965275 10.34212840917202
Ge 6.101154443931546 16.786705358685122 8.028466076801068
Ge 18.494215112935045 8.374864803987483 11.10821926119518
Ge 18.40726279813678 11.754734256703728 11.202153093351896
Ge 9.114290197987838 17.09948357418261 7.781578286589063
Ge 17.314679440460665 15.06448380114126 12.915520957165633
Ge 11.30976092884633 14.945326194711818 13.520930970621906
Ge 19.045060586373285 12.609665573446412 16.520012378158015
Ge 12.226680200509985 14.641146983856734 16.369043081950792
Ge 16.918259608510894 12.237894978055614 14.341766288273604
Ge 18.845525534643915 14.73341584471616 10.361490380094672
Ge 14.18803968117579 15.023202628797524 11.489673471267194
Ge 12.178035360743019 15.594495658440586 9.13600576671321
Ge 11.606465614092532 7.554919142255642 17.61887614153175
Ge 9.850269674919929 15.125221036784287 18.139253103482584
Ge 16.073105086316065 14.127642317810038 9.198860493600764
Ge 11.176271899522568 11.998889812585423 12.690738977391064
