34
Energy = -122.1449454 eV
Ge 15.74005777444067 14.986671638784609 15.295411982250572
Ge 17.565217405622107 14.358622466489983 9.68094918372798
Ge 13.741394332119613 14.64431298481847 8.906386492416647
Ge 14.96785194419768 10.543295249291765 17.74181473546548
Ge 12.700032736858557 12.77116598746879 13.696289345945965
Ge 7.949884824702299 16.3985005972189 15.90015943635922
Ge 16.726416850379316 17.898101930227135 18.864322781669156
Ge 11.721241436712102 14.418100420702581 11.191941840511426
Ge 17.797646514981444 12.85545025817298 14.412161632876646
Ge 11.425067943013739 13.69610955262706 6.887890253800808
Ge 12.595252859941155 11.103150571246179 7.63359805443982
Ge 17.084390263692864 17.526449859068293 14.345992853414398
Ge 15.996620025743352 13.078113551982458 11.943620043475171
Ge 15.547678333555039 7.829714326763378 13.772410661691573
Ge 11.516913138118563 15.168215542703354 15.409222296415443
Ge 9.890730892827413 11.542678137326158 14.383967908114432
Ge 6.8638836793140685 13.652403181537911 15.305599273659658
Ge 8.264774059907838 13.486146649130363 12.588839558491385
Ge 9.55786210027985 16.16437895622243 13.22838639339351
Ge 15.568437527550582 12.24502890151508 8.112773236894608
Ge 14.399536146883694 16.502389549147768 17.94658089517698
Ge 12.70199945536276 9.12897354696376 14.400864129415657
Ge 14.777826792701886 8.2837278378065 10.88625422946591
Ge 9.31623479870412 13.931709371217648 17.129274216268417
Ge 15.516681784122193 10.803793791966521 14.736567202519245
Ge 10.351235645360909 12.348909592832335 9.399729133967789
Ge 16.729383400090818 10.539067617552575 10.369955953772166
Ge 13.130406817000727 12.935891109591925 17.58111019785872
Ge 15.364963774681232 18.986109937761324 16.445856747855466
Ge 15.819373525399078 16.749458421588123 9.996987506058094
Ge 14.618259608405468 16.630966811031684 12.837028958029059
Ge 12.423123932742753 10.31847354307162 11.441478844750714
Ge 10.13520943722758 8.829278566346273 12.79513200564508
Ge 11.963483743152045 10.233380400000824 17.376874031632088
