35
Energy = -139.73197729 eV
Ge 16.13498458183104 10.315301116619986 15.2711092811412
Ge 8.837659968986404 12.949751944959928 9.77475913710789
Ge 14.454125634584356 7.797474165336211 14.031789455079284
Ge 16.863076736114547 13.694539910198092 18.08083756630753
Ge 11.281103052883866 17.172291021845727 16.31733942562554
Ge 11.34051313620036 14.283787241269687 15.922962323180608
Ge 13.521190463280321 12.714756646634065 15.537006557276744
Ge 14.774160982080405 10.542961497617611 10.381693526098715
Ge 12.087077665426198 17.689801863964753 12.471934365360912
Ge 14.483874737846243 17.612144838172775 11.400463984459078
Ge 14.423904182977047 12.942015646453115 18.04331342351451
Ge 10.388921177375789 9.889141704820272 11.834939462217207
Ge 15.359829638610588 15.525120787526467 17.120657310396247
Ge 10.219320167222332 12.483455629413927 11.830416248665626
Ge 11.356774695133197 13.775403355385821 9.599072903273447
Ge 13.644167119915684 13.708704049126627 13.106912624766531
Ge 15.769975943126695 9.925986163656088 12.831497351172349
Ge 17.30516544922258 13.766246455728922 13.215506839838442
Ge 10.183494928955673 18.22310888198007 14.154004472854568
Ge 14.567674335199682 7.931022501497314 11.473909926806948
Ge 10.482246854831855 15.67770778634232 13.849349601362977
Ge 15.501626685800149 12.772864381741135 11.700098781242161
Ge 17.509714813023933 15.189423145381946 11.018937959761608
Ge 12.057331265609326 15.137928012218417 11.771297713881747
Ge 12.918144520941249 9.689717702828563 12.453450350808819
Ge 13.074198655473579 15.140329713619431 18.089767978546483
Ge 12.388217642987634 11.64329078283775 10.469361029185952
Ge 14.9666044883649 15.271171196835942 10.670511409210985
Ge 16.443406667093054 16.705997195061055 12.793738236648839
Ge 13.618196853363852 10.20468628497238 14.814673771896734
Ge 16.25678691033767 12.986096858301124 15.687295062659716
Ge 15.135127065954691 15.270732372678392 14.492641638591406
Ge 13.058052026601791 16.760177531550706 14.632321685159276
Ge 10.58516841134968 15.458877369908189 18.092452110579266
Ge 10.195962293050671 10.812770686463525 9.453966850581097
