38
Energy = -133.728153 eV
Ge 19.346671292036834 21.0821033775713 11.36856531003304
Ge 11.037826152084635 19.322137274084195 19.472033122505678
Ge 20.636551475121582 16.939481883244444 15.13001478479211
Ge 11.404903790704234 21.66469580751318 17.57746786361328
Ge 12.620687758394675 13.402733396033039 19.907977649465614
Ge 15.328076330264544 9.581868270130833 21.641254802082347
Ge 11.823281438721864 16.43794533187119 12.598921683354172
Ge 13.012427940478945 16.57828592165144 9.86430072571028
Ge 21.735338863222157 20.408400665226033 20.525560768339094
Ge 16.074640390030368 13.083970840172956 9.675971256181764
Ge 13.072385641969548 19.103497654670065 13.373901270430341
Ge 22.70874842982654 14.396280996746269 17.93126954387343
Ge 22.150318150085226 18.989722811314547 17.87752083407429
Ge 21.926547975975428 11.767285455329809 17.053372868124207
Ge 21.93307957798196 17.39361972164483 20.424878421640802
Ge 17.7022333258827 17.577094599337865 14.592578215651725
Ge 19.500431888201103 18.796242821865576 19.294378800189804
Ge 14.14179391597896 11.000326773010064 19.426843052325193
Ge 13.596973641297414 13.049659329947518 0.6580019367939879
Ge 16.37262498592127 20.505007391105288 11.316496427505683
Ge 19.880252747685418 15.333772688601842 17.60806795142647
Ge 18.344060344111877 18.204138337018048 11.695671655941638
Ge 13.994644135716703 14.14298005733176 13.155072344643642
Ge 20.934635434583594 14.140038898136956 13.887341675578853
Ge 17.577377767208077 22.142901389217954 13.573711403899738
Ge 14.1455800070351 18.00859952686485 15.992632710838906
Ge 13.039368351272744 13.51410569972175 10.319994754039186
Ge 12.35347582908814 14.429647263190567 22.588638997299913
Ge 11.318406055497404 19.04363307706275 15.981358383682593
Ge 19.266727809192126 12.729184124011852 16.011529515007318
Ge 14.216053484234017 21.890112551835387 18.788739172554376
Ge 16.848252437892288 12.381392591072776 12.555062474683384
Ge 18.081645768405025 20.280233746569657 15.921015676119213
Ge 15.04848460905114 10.602933821090229 0.18740936745127232
Ge 18.829373259304276 14.354295253379803 11.696421677270486
Ge 15.044962428672056 20.879566162132864 16.034837717276307
Ge 13.775374926140076 19.373619162963042 20.350088453636214
Ge 15.753404454250884 15.708381456852091 11.195941456722425
