34
Energy = -137.66874436 eV
Ge 14.164195444480482 13.603907138134153 8.2984450194434
Ge 12.905804949853858 15.428306069821637 6.9443553991761195
Ge 12.548858189351439 16.49508465109989 11.351716513520632
Ge 13.143552682899525 11.275593415155997 7.837405145897305
Ge 15.922541019344239 8.406607855886987 11.551920265988368
Ge 15.893273927747524 9.69513563088675 13.818916613732679
Ge 13.311118780487515 13.635545943664885 10.735862397146573
Ge 14.90520583309599 11.058573087912867 11.746082852262072
Ge 11.69834903393666 15.291545270044324 9.170490954421211
Ge 13.924773415960537 14.834600280252666 12.881604709357239
Ge 14.771587919264261 7.348049468582975 14.03904307711466
Ge 13.401039750918496 7.2563993446775426 11.853551193287913
Ge 13.963787061631463 9.213237726517098 9.931844565529111
Ge 12.533642546483872 15.215858160418309 15.253860307594232
Ge 12.229277616513922 8.303521166258522 14.067434917826459
Ge 11.63204960772409 13.170418687031976 6.947645799467622
Ge 13.509578131669361 10.573217279280293 14.265194430655832
Ge 10.967010806748794 15.448273519334224 13.002167548217392
Ge 12.1155043643164 12.81907054266468 14.040062899824132
Ge 11.552155547628734 12.191784628953771 9.658725045943244
Ge 12.419319369735925 9.957487279676696 11.932767503791979
Ge 9.92023366052101 13.058739114064027 12.572800477603412
Ge 9.837431492528923 11.673386102440482 14.99607781158315
Ge 11.019247755179963 13.455346574904866 16.575017029513315
Ge 10.010447574618606 15.998557195799615 15.549633123718223
Ge 10.112598960524439 9.810041708071596 10.84910475880736
Ge 9.698424664469306 13.86113327275897 8.541735627058626
Ge 11.416515438937951 5.853738248497795 10.917908457531714
Ge 10.263165464860393 7.6753606966792445 12.277773009089715
Ge 11.495295177868902 8.040847454865876 9.586829395653028
Ge 8.87243987133694 12.073031641837725 10.452227237864257
Ge 7.660776421154403 12.685473570457907 13.834797347806134
Ge 8.473329781238164 13.946400341682656 16.06384105844318
Ge 8.386795101857865 15.216201633479331 13.529848823403668
