49
Energy = -197.22560543 eV
Ge 6.361110997234715 9.139933311801327 4.79339484703521
Ge 9.007761123573745 9.105756530516912 4.470194021312372
Ge 7.9980297805361005 11.608512724027124 4.631449606687262
Ge 6.559343726660045 7.066191462514931 6.417768791152437
Ge 10.472494990999097 11.174426897090388 5.33581076239606
Ge 10.443438669006557 8.448302191494676 6.635792320984605
Ge 4.519725399838162 8.866362134041832 6.8908367965551784
Ge 8.986203747436383 5.970000589745464 6.550164880937257
Ge 6.932121848860609 13.093416957855062 6.710433244076925
Ge 12.613281033724133 10.318921038141331 6.650139537155862
Ge 6.897814273273894 10.483144572159947 7.06144099925834
Ge 9.495330414306757 12.633493257471617 7.3235412706912815
Ge 6.508878321417499 4.813046415785249 7.835967436747372
Ge 12.369689231096604 12.82092759480775 7.680432878417017
Ge 9.301841690109033 10.139958654300916 8.11781257969301
Ge 5.087902502924265 6.924171211969403 8.773461218251727
Ge 12.912676511908645 7.7493234872603765 7.41421174580109
Ge 14.649485034063003 11.797449091940852 8.851339736015586
Ge 9.002151003829468 4.840325608906193 8.918785897837607
Ge 11.381068598440685 6.475466019847111 9.331148304168991
Ge 5.121559701400417 10.064845835745437 9.163502476317369
Ge 13.930190790980523 9.348761132283524 9.34770797513532
Ge 7.9955602476129055 7.401328940934854 8.659086743908658
Ge 6.769080598800681 12.819111866187825 9.31521747989817
Ge 14.783139062299705 11.969281108432483 11.44820986025881
Ge 10.036972911851102 5.770822588221882 11.644786482608396
Ge 11.864674596114641 10.894587286649045 9.37837450727102
Ge 5.193279072643676 11.881065367507292 11.053124403068043
Ge 12.810944425073002 13.48474634036246 10.234826131977973
Ge 8.261582347040939 13.601563562303317 12.587746678686512
Ge 7.6000879741350635 10.374976367726742 10.183783723912354
Ge 9.163048053684406 13.741552571120367 9.911124087883284
Ge 6.926384992075748 5.719121447036612 10.456658957861535
Ge 10.16055066392226 8.461215854677208 10.394642737619263
Ge 10.797916360930575 14.392495289891016 11.84961171451963
Ge 10.018079815317321 11.672642201940956 11.21998937659713
Ge 14.68048588515964 8.50364170848694 11.734115963132595
Ge 12.740976880341469 6.461984690028231 11.764813510288759
Ge 12.119056068559962 9.276552242376324 12.067206692276248
Ge 5.9586251895520235 8.468246258262605 11.162090561757598
Ge 12.770476443012898 12.837960344723385 12.984258328421161
Ge 7.442932496123085 11.087791536160477 12.68124241700269
Ge 8.458350234220788 7.823231235750342 12.21625826974203
Ge 10.184724245499433 12.002699398797358 13.761093476226076
Ge 10.828392790966337 7.272348997138116 13.823631455949805
Ge 14.088981149487928 10.5076216273603 13.564873687307735
Ge 13.469920994263333 7.610007187166187 14.010809380014496
Ge 8.822915302626111 9.40713575777696 14.322910536538094
Ge 11.54732867431313 9.720098370523514 14.710742375893611
