4
Energy = -11.8525604 eV
Ge 9.492257427921151 6.527780803377409 7.4249302119646865
Ge 6.369323742912205 6.451896371005484 8.662514923257516
Ge 8.547458123267994 8.559369105052449 6.469447251208241
Ge 6.0489202409782 8.51561925299585 7.4653529803742265
