42
Energy = -169.12843795 eV
Ge 7.783834815289658 12.307817151625976 4.6908485423545345
Ge 8.584496366094486 7.439613685472977 3.81875511301287
Ge 8.316109484060405 4.9320310618222445 4.583341464668333
Ge 7.098064635026225 9.454340862040823 4.640098466135937
Ge 10.539490204950154 4.967619235921063 5.8052784147332295
Ge 11.877016896478537 9.78009081034066 5.426098050445956
Ge 9.377129703906574 10.396322926367494 5.670869874256674
Ge 6.5763821364017705 12.439535708824865 7.013668682938064
Ge 8.18733914460464 6.9622576781778545 6.465055549801333
Ge 6.220198434080595 5.504279820295338 7.746256210486496
Ge 10.575832685229566 7.489052908379037 5.636858048984606
Ge 9.562940879377107 13.002124966836565 6.405532817382143
Ge 3.6338100911583537 9.182449772116495 6.568518448786035
Ge 8.098917568309902 3.9600522508433293 7.060384537889141
Ge 6.151384227386944 9.899934824685722 6.998518948009285
Ge 11.87150235282155 11.967754772974892 7.050574650537182
Ge 4.058489094312018 11.741002852795301 7.370120979520708
Ge 11.798176126791336 9.171218730579897 8.00072848906362
Ge 9.438810389528655 10.142452311945014 8.199350484745242
Ge 12.1610447737299 6.675801653968758 9.091900842422671
Ge 10.447954213013821 4.623278541584515 9.271552222067745
Ge 10.419253784507234 2.920567730762228 7.3808663049514225
Ge 4.747894394438228 11.052941631616957 9.829000685846621
Ge 6.426155910163048 5.2582919666721555 10.428103204120553
Ge 4.745171410917845 8.140312026479446 8.81457846076689
Ge 8.176157489739238 12.483451493932556 9.021505876419035
Ge 13.635434705742393 7.274500789193156 11.24452975999086
Ge 2.53385144749275 9.667344679948364 8.942915824335925
Ge 8.780786123728404 4.498400421173362 11.363824185771245
Ge 7.238757777924329 9.530143558875501 9.493261777127389
Ge 10.168805307596607 7.937720990426151 10.244165866311524
Ge 12.654541546621461 9.56535557398969 10.55224059811977
Ge 10.709425478748033 12.090900041482307 9.506851738447505
Ge 8.430860057735096 6.261913637880445 9.141789575369357
Ge 6.842362483518508 11.718644534712528 11.074724807906673
Ge 11.487955217579781 5.78226641523646 11.723081452286031
Ge 6.016592797754061 7.694633217594204 11.134384231267886
Ge 3.7002186639947094 9.119258142063334 11.200666868406193
Ge 10.294945502159255 10.19019875011569 11.528537204441326
Ge 11.635993418956465 8.29581190605939 12.987465592707416
Ge 9.275684036966341 7.024214938913811 12.532680559433034
Ge 7.6595494059876525 9.39341621009686 12.279835772554227
