4
Energy = -13.97407818 eV
Ge 8.555551245686836 7.9651770212535125 5.7383430174708945
Ge 6.564147619852283 6.716404246506408 6.534280383331017
Ge 8.164817597932597 7.981165607618807 8.184449253487635
Ge 6.153182048621646 6.774951636714512 8.980625857803933
