49
Energy = -197.84049615 eV
Ge 9.30555197058868 10.66810065335527 5.017516038482412
Ge 11.546442886500353 9.26661625873951 4.596923384264467
Ge 9.208953209495167 8.031236094855666 3.9035377990338174
Ge 10.899848066256915 6.311444657978227 5.239707090482538
Ge 11.585253119668902 11.791117230488934 5.755872903549432
Ge 7.451472390211189 12.813679310281511 7.459097802016194
Ge 6.853649968624286 9.607733289418762 5.482714398155491
Ge 9.659483827367723 8.427383164127122 6.694993402654699
Ge 7.432379330323112 6.985761641994093 5.743131589826223
Ge 13.50821317505179 10.04119869631572 6.506963225333129
Ge 9.845613307421582 11.804159433874945 7.725730611186825
Ge 12.472024788760685 7.66867105704551 6.842126749005312
Ge 9.595184059025618 5.725083230342953 7.447130653760971
Ge 13.351963761924644 12.90794339610897 8.850359049712589
Ge 5.4833512201782115 11.231347469082326 7.1046130752327645
Ge 7.124325146859437 12.910861512191168 10.005575400732218
Ge 7.660735765523009 10.138575944931679 8.460836278792744
Ge 14.334281849350559 9.761710447919567 9.193498464419683
Ge 5.986393711851867 8.139262863296413 7.7301027202392545
Ge 12.537718972086655 7.56855842309479 9.653113931440862
Ge 9.511880242803471 7.633847083099567 9.61246669017676
Ge 11.437049663346757 9.696871177847706 8.374721976861881
Ge 10.86668532998431 13.452239151347442 9.582249750038866
Ge 7.016419204609663 5.565293077536929 7.951387458993274
Ge 13.356820044381461 13.557296638536346 11.537095814674954
Ge 9.271172397749368 11.716120259139455 11.10781244903384
Ge 7.042546766621752 6.892967151460385 10.267355818367207
Ge 11.096243614436199 5.389910049325932 9.559840031466042
Ge 10.447453973525167 9.162203835482574 11.551952534777637
Ge 4.856162483349652 8.399589531420572 10.645399426438921
Ge 7.728386334471375 14.02631687014751 12.186652311122296
Ge 7.366522120407007 9.486118260792244 11.354726422895238
Ge 12.361810273078271 11.061744251908166 10.608073419349275
Ge 12.41800468590667 7.704032477898985 12.49383488279846
Ge 15.32413417601438 11.99123089199421 10.331023020013784
Ge 5.412631126779067 10.999085058676885 9.765557521536458
Ge 10.415837205438383 13.83027501168792 12.221489402761907
Ge 15.303879093266417 11.839138519274945 12.938404339434932
Ge 10.20115718808824 6.2168026797713445 11.797599608958993
Ge 10.106139544711363 11.726600710445446 13.791534431736997
Ge 7.737099855631334 6.056623729648757 12.708497142208953
Ge 5.529267559738226 7.900485719510962 13.243692691782137
Ge 5.054176649897306 10.454608283489431 12.526675817543607
Ge 7.410810582114453 11.650380533933896 13.199942956339525
Ge 10.972340689731535 9.20516699390434 14.169378067490895
Ge 6.650676930192816 9.737397455184764 14.840344228232484
Ge 12.763392675719333 11.402581628942224 13.20522013765262
Ge 14.482799874834734 9.570470985842581 11.860191890184499
Ge 8.475663031243085 8.334161051446229 13.613339033948218
