52
Energy = -210.38749806 eV
Ge 13.27302030329056 13.548179781615756 9.175579453271423
Ge 10.48397160542771 16.04123599341076 8.249532904948099
Ge 12.027009993865075 14.272021421027288 6.711185428031993
Ge 14.2430895958433 10.444620314387743 7.086622160646993
Ge 11.833676001013671 11.580315721982803 10.144232358652562
Ge 9.770509403490156 14.873464099414182 10.46169378059813
Ge 12.429387118176557 11.788205750148414 5.64948760768395
Ge 13.84181100458918 15.420751843524519 10.93315630137835
Ge 9.471929703025376 14.963653139799666 6.017691653083904
Ge 7.888849930177522 15.153203184060137 8.261349464746253
Ge 14.151376819329316 12.669242643679011 12.076743417861154
Ge 9.562652175108424 11.991439076726854 11.419183398382668
Ge 7.899142306180193 10.76711486109254 5.358932318284018
Ge 7.7520859721713276 12.773144848826686 7.098570160421339
Ge 8.209836090447519 13.281096730398758 13.563556112965927
Ge 12.860708404926356 7.7427108925868495 9.957514152515982
Ge 10.516083037264217 10.029545068189703 5.231676882806121
Ge 13.111424339235095 8.140500884076301 7.455926982107148
Ge 13.317728105485989 9.852907905166285 11.415683298724295
Ge 7.54646679422592 13.58320190265255 10.879285961324332
Ge 5.1736185563138335 9.451079336700083 8.582983682180663
Ge 7.944281141754258 7.320531903271568 13.344072940182565
Ge 9.760936655636275 12.54900589618061 4.85740093183908
Ge 7.454262660402591 10.936041130753926 14.247034823465818
Ge 9.309521578266002 9.213384312284735 14.49657030324855
Ge 7.763302152972397 9.1704818787144 7.474339906048329
Ge 10.751009173126763 12.689958635372651 13.762930576952677
Ge 5.762620828645814 9.068071820489758 13.43169885054759
Ge 11.9142968587713 14.047279136593122 11.90016008036585
Ge 5.434733223856754 7.896136759845764 10.752895415297239
Ge 10.069962084875947 13.269474433564248 8.258209957943459
Ge 11.6190826474599 9.288005699714217 15.735861861972595
Ge 6.663974426203417 7.097242717666572 8.60597192130694
Ge 11.272123486222856 10.17158269549184 13.13429774253528
Ge 7.271629372947559 11.131414041414555 9.269222470222376
Ge 5.3295547589436945 10.58814838898875 11.033758385446918
Ge 7.872567806947471 9.879905551296295 11.794513180250451
Ge 9.498548258594207 9.517695777327276 9.474502220771091
Ge 13.81108212340154 9.714931228500717 14.086969293109625
Ge 8.263095529858417 7.4576966219368 10.747602175110819
Ge 11.66383572044122 10.373068277935172 7.785693603503157
Ge 11.151901231653763 7.131549182875544 12.621017217767882
Ge 10.638634246524385 6.458762368407285 10.125337266601806
Ge 15.765626779898426 13.666369470320115 10.30049575724054
Ge 10.48349927400384 8.113241342295915 7.087015785816839
Ge 11.394772218562203 6.673101825191554 15.279063165482732
Ge 13.612503667998489 7.129544296599486 13.572095750549748
Ge 9.684300030032075 5.221359609540603 13.96421200242294
Ge 13.524447860020524 5.643859214943578 11.443552492708033
Ge 14.848029639735783 11.369150611519997 9.60564147698042
Ge 11.141452036685239 4.398202350685799 11.800552423719987
Ge 12.673717213056849 4.720369920167252 14.088002500896652
