55
Energy = -222.42558179 eV
Ge 9.784721541114475 11.462105948662892 16.37418663060054
Ge 15.414004811464485 13.279705270651657 11.338310692413586
Ge 14.056693603117804 9.288222018665993 14.229559605056878
Ge 10.886970757956645 11.425149143096606 10.385315485463435
Ge 14.702651398610458 14.790081419357834 15.126625635823563
Ge 14.828761635636496 16.43657885123772 8.136745338636226
Ge 11.47194826305467 11.670308568721216 14.329528193169859
Ge 8.277459297750976 11.882846515404662 11.110895380750122
Ge 13.495807829131376 14.912510249259231 9.992579735950311
Ge 14.082808192441572 11.740287623428406 18.24181788006615
Ge 11.722249289714805 12.886927579495554 17.520684569248246
Ge 12.9321412140662 15.09052029545611 13.27461031847632
Ge 11.299668558825505 14.364680651220832 8.523374019668273
Ge 9.05051942480338 14.591042021756085 10.50595532089283
Ge 13.66524635695217 15.894276790333297 17.195000603695103
Ge 10.918043279264396 16.61405369446085 14.014484625596303
Ge 15.586665639181442 13.717462971594893 8.694074101285425
Ge 18.1530414934725 12.443248824732356 11.05013126446262
Ge 16.056888961644205 10.792527236988345 10.460179740749378
Ge 13.846202237741768 10.605042092233655 12.01381642483389
Ge 17.64097173658847 12.804373390532097 13.509709795155631
Ge 15.783897528975414 11.31875923379067 14.44734442151188
Ge 12.82312368734968 10.412399818323754 16.263843069979842
Ge 9.3621142055632 12.67591269031684 8.665840016483617
Ge 17.066284974824516 10.391069212995395 16.684410018355333
Ge 12.055411771342275 16.755699505869394 7.778676750747353
Ge 8.996611018739413 13.965176857334109 17.00034140157795
Ge 13.395918889702186 17.81690045261469 9.985222240258752
Ge 11.210500296318429 16.275694085396086 10.433189945842056
Ge 10.720776744934888 15.305830498833325 18.548845861541206
Ge 14.305484356263088 17.043785955543733 12.4194835604164
Ge 12.832669362864616 18.46654811295604 14.3529347328646
Ge 13.159161227601814 14.251604367440887 19.227096964135125
Ge 9.177259508780397 9.42974813945165 11.541522030680769
Ge 18.256160061329652 9.882722239803787 11.993959579902254
Ge 18.25681899272992 12.988910536832254 16.18008497864073
Ge 10.627146095021729 8.960645829196137 16.217890387090797
Ge 18.707627795734325 10.663155290724239 14.634006503743063
Ge 15.66170110946039 12.84389462931548 16.57093212599713
Ge 13.513305290281831 14.401570233471492 7.087231408559956
Ge 16.415556404248225 15.528244472738777 12.263819782978212
Ge 8.875235571142921 15.061544151025734 14.620187368448923
Ge 12.281131987267639 12.870093406062926 12.147686401629436
Ge 8.87120410734053 10.940616795933643 13.833111356826912
Ge 11.322763769986802 17.244373146295136 16.655616308462935
Ge 11.502224123029952 14.698534672336214 15.743020154713163
Ge 9.644870342667922 13.390842606551047 12.8314406589216
Ge 13.68456488049496 18.499577275747743 16.879267587868707
Ge 15.98976939710751 8.646050995827377 12.030174849367622
Ge 11.836134078823802 9.098900949282001 11.0066384545266
Ge 15.300639900237082 17.428001450875545 15.038609498053715
Ge 16.67761061843847 8.710592052515102 14.655585540612377
Ge 11.008610330646675 9.258413372610244 13.561178904844713
Ge 17.295262979957798 15.267279649652457 14.686023220913192
Ge 17.537104247553533 14.843077334340853 10.01531973080481
