15
Energy = -4.0800437 eV
Cd 10.202221961346613 13.395018484667244 7.822162404915873
Cd 11.79396725012413 14.445680268976895 10.310253008974575
Cd 9.028657454613086 8.111115947704716 12.778768362465708
Cd 11.666683154341387 7.201613167923246 11.470013668765286
Cd 9.130806317460003 7.77496391088477 9.587547759149905
Cd 11.768400556431837 9.508775110412103 13.700773722083571
Cd 12.123053339267647 8.77547947155302 8.526721254649484
Cd 9.079960434088278 11.43229237476999 13.33425091474535
Cd 7.476124037739276 10.37822684750383 10.833808503791134
Cd 13.726929832488267 9.82868425682937 11.029528523896257
Cd 9.148889240411677 10.419352609569021 7.781791346793168
Cd 12.334040632566525 12.515257619876751 12.74923658714546
Cd 8.821980636251867 13.407837591748905 10.67527257003425
Cd 12.923570372869415 11.994632758591342 8.648940555941902
Cd 10.663464893675807 10.699819465312999 10.639680816648214
