11
Energy = -2.56131454 eV
Cd 12.819589365794956 9.489984318387382 7.533665616322933
Cd 12.10098119532825 8.163455296241276 11.009331951945486
Cd 11.268794710847272 12.952503813536499 8.63539053177295
Cd 10.097207080131145 9.999539410199263 9.403759902665351
Cd 13.183536484955201 11.151183963813024 10.389609661045359
Cd 10.3331346247825 9.983154151153398 12.805213321646738
Cd 8.74467025082067 7.672550365663627 11.198709919011698
Cd 13.530008140851214 14.334093229353169 10.723018866841548
Cd 10.748361363090504 13.050610355939538 11.70355706893444
Cd 10.917512577140808 12.37346218324947 14.760387690977916
Cd 8.123286890502749 12.185680482344159 13.201546767791264
