11
Energy = -2.67843554 eV
Cd 10.516585819699532 12.64548880417535 13.551561376327795
Cd 11.777554921311252 9.71639515994167 13.874544638258408
Cd 11.085714931498506 14.429242449822263 10.833655001072575
Cd 12.924089799288234 11.87988812476782 11.853337745811592
Cd 13.255245878763326 12.997555199177663 8.869015209723718
Cd 8.53101846548782 8.375543741889853 13.111137032096652
Cd 9.31703761342404 11.962527312625616 10.860507661398335
Cd 10.978099330947586 9.09172542732419 10.972205448398274
Cd 13.819887598236537 9.882279525922355 9.661473503499703
Cd 8.328823122513716 9.485750398542631 9.521296212092318
Cd 10.95811290542511 10.837670664100854 8.37714045503838
