10
Energy = -2.07373446 eV
Cd 12.12227991969623 11.096765709934058 8.885373868037343
Cd 10.261912953458133 13.746257186224845 8.88946582840548
Cd 8.405788050312303 11.053535416684856 9.356190952702274
Cd 13.77377123723394 8.310405091846613 9.342791484723238
Cd 10.552866658933215 8.799049368506356 10.492139790491963
Cd 11.88560716765663 13.519043492600355 11.771733426140678
Cd 8.59528089162131 13.493383637760452 11.587703108183934
Cd 12.70354068551909 10.315382961013453 11.953985029817447
Cd 9.655439776292614 10.743861794840354 12.911944776731392
Cd 11.042352156040765 7.921154837352873 13.807511231530352
