17
Energy = -5.35991955 eV
Cd 7.247162102518809 6.384832702651475 9.571504149023214
Cd 11.87160457121757 6.378572504235011 9.559012121500986
Cd 13.307048993202585 10.773770137899549 9.552918830713018
Cd 9.568038818084936 13.496578596886692 9.563507199749704
Cd 11.098876966343054 11.663034833595649 11.399230857027947
Cd 8.045992431877874 11.66671799110983 11.413626782664714
Cd 9.554359826006957 9.562904705456907 6.055099585177416
Cd 12.03852078366655 8.759231103068124 11.399764657836474
Cd 9.567396286636844 6.969566880121644 11.40668966387294
Cd 7.09920143770459 8.765796516304151 11.415524469205126
Cd 11.086772571151316 11.661135142296494 7.71672220425885
Cd 7.087901724194917 8.764948300368273 7.728004465739125
Cd 5.827152623851919 10.785434853471374 9.574801408304639
Cd 12.025350180926496 8.757605819264064 7.71305750349218
Cd 9.553407633984355 6.96854925801501 7.7233745053943945
Cd 9.5749335069041 9.565067719871225 13.071445847206821
Cd 8.036559580767124 11.665623834976978 7.7238863606000026
