19
Energy = -6.23267324 eV
Cd 11.619495995936944 10.100170110152304 6.011687990330028
Cd 10.968364358381233 7.08169977568008 12.627593217622518
Cd 13.320402724752222 9.783821253296177 8.435964328935047
Cd 10.42047999150513 8.48725813468174 8.390131564760177
Cd 13.189178275958055 8.25432267261599 10.87172818833604
Cd 12.579341243460112 12.738988753345158 7.782786600163175
Cd 9.729046921632891 11.698818842771063 7.6744750750606565
Cd 8.685131512553896 7.814294502118375 10.85684926284273
Cd 10.681173152666378 10.578966630735616 10.605162268151597
Cd 7.5823524133423446 10.449119997732932 9.224915235726604
Cd 13.440599628108874 12.084276524700087 10.63535287210788
Cd 10.591571867774238 13.643251896742857 9.877390736569442
Cd 13.602478856658404 8.180212556192963 13.82451949281472
Cd 9.354986512885624 9.670628769950333 13.302610458877353
Cd 10.098473774091769 12.620747749004984 13.218121410908294
Cd 7.700871055457909 12.769138216571411 11.313926674679019
Cd 6.598846214116894 9.978500533868758 12.014129235456906
Cd 12.369521520993121 10.769503774006475 13.28726556700358
Cd 9.500529091799367 15.329124417908249 12.07823493173025
