20
Energy = -7.09806499 eV
Cd 12.392379276816573 9.705935606301297 6.2783515430645656
Cd 10.16041580493514 11.778724466629301 6.395913954790322
Cd 9.520480110026657 8.771283422038808 6.173199387465132
Cd 8.466625717643563 7.7177773909207055 8.751462807047933
Cd 11.578081678860393 8.108655497363541 8.70181717701398
Cd 7.722525332729764 10.693649589573388 8.067326284009619
Cd 9.35234013849503 13.062408183112547 9.040711307310742
Cd 9.916997090526861 10.148992160971712 10.08495991616987
Cd 5.6611600190064335 8.963046505499587 9.412661462850851
Cd 12.162562127768375 11.640931290895915 8.75208317245673
Cd 11.514967784252923 14.045812700740445 10.926143373086335
Cd 6.9266931814082575 11.051490932057073 11.227929861225984
Cd 13.088614568533895 9.825831212371424 10.875208615861613
Cd 9.946457101252214 6.901282271398209 11.281999269220705
Cd 12.967105677203635 6.740835601632377 11.065478614469505
Cd 7.060025466362312 7.7833848228011355 11.75248130178746
Cd 8.804770414920892 13.203904864750722 12.107470491185385
Cd 9.186477663917998 9.58728418332579 12.893652485080368
Cd 11.416361630843202 11.610007316530188 12.664822572641786
Cd 11.959281601645396 8.46308436823505 13.350648790410153
