3
Energy = -0.27610176 eV
Cd 6.498424499999989 7.207007833333252 8.1663945
Cd 8.169545500000035 10.090626833333438 8.1663945
Cd 9.831213499999974 7.201548833333307 8.1663945
