35
Energy = -12.3953541 eV
Cd 13.558517211819987 15.758963766096805 9.330544902953841
Cd 15.079449906426099 13.147413902208214 9.255379604615513
Cd 16.61540658281079 15.850021233338468 9.041205659262854
Cd 11.897202601919945 16.77182771527284 11.55111146133484
Cd 17.67393699367267 16.847642346049142 11.73180657713042
Cd 13.204125221938982 13.321755993959405 11.660223815363926
Cd 18.31362972933353 13.845699284985201 14.1633448013255
Cd 16.838940937709165 13.88330853618971 11.633227926416318
Cd 10.402687135317763 11.74174957891407 11.598094491489046
Cd 14.729368777149391 16.134771576940285 12.599651994623526
Cd 16.278618132155255 18.51094135274236 13.858117690741809
Cd 10.866165488071381 14.607586907978881 13.403662828116627
Cd 12.458327928966252 17.335604547570803 14.585743959167214
Cd 13.649289390630042 19.97485680661696 13.845905857690532
Cd 18.784184370713227 16.78388212780509 14.604325523579519
Cd 15.171395825561397 13.373674587903972 14.15030267722738
Cd 11.986727393620537 11.965760424400722 14.262566755672198
Cd 15.647462079145944 16.027544280254517 15.634721043132691
Cd 9.380513257483495 17.058648826793217 14.79189949832212
Cd 12.661394546411145 9.81221469472849 16.263828668562198
Cd 11.262277301429428 12.38437755999231 17.33963728579281
Cd 12.95684549521366 14.655877397193104 16.008306312369015
Cd 14.600173446094592 12.108474278193896 16.832282595726753
Cd 17.766839070907643 18.945424203696824 16.55447890031698
Cd 14.902142601449142 19.538014332835026 16.57665617357189
Cd 18.088986940277113 14.630838320668934 16.999066517726334
Cd 13.45152052541018 17.199235140153487 17.599336748498075
Cd 20.946250248584168 14.879024746717773 18.204150651932213
Cd 18.925529856457857 17.255758302331053 18.547924251746245
Cd 16.303891439072935 13.106784256648991 18.9270915893361
Cd 15.995509254879762 16.104806918813786 18.771970550151167
Cd 19.179699459339155 12.89462403171993 19.66812571288479
Cd 17.305100593519338 17.34572946213653 21.22794477935146
Cd 19.88635270746581 15.620958428808184 20.984479240045072
Cd 17.01497163625388 14.359638216551911 21.57631704103419
