33
Energy = -11.33967139 eV
Cd 6.399316968493501 9.569253124664197 9.33737612450101
Cd 14.447317882392426 8.418636284208675 16.274070196199354
Cd 8.354873338868767 12.284640056838809 12.72116873880119
Cd 17.438155359712187 12.137851993337009 13.746269323751589
Cd 13.500729533833402 15.703388092854476 12.26406781935436
Cd 10.648617634862886 13.840732678678584 11.520473437216253
Cd 14.007695657941557 12.33408852937931 12.075597412171508
Cd 7.9084771225973265 9.862035265006876 14.999233752646067
Cd 13.04462040795313 17.479373648485147 9.8615237530783
Cd 11.051048012878187 16.208537382436546 14.186125574656897
Cd 13.31537251262238 8.789950572552073 13.253012811234763
Cd 14.27607298962927 11.38953423730658 15.26903745052055
Cd 9.630641441143329 13.788720315118878 14.918322119848463
Cd 12.113622956853071 12.072964566994955 9.593013991240008
Cd 13.985555433773289 14.555516797440783 9.371369381602088
Cd 10.421119763461272 17.178337441842334 11.509897433218592
Cd 16.01779055789965 14.69005726903381 13.475102156882762
Cd 9.329939434059103 10.873424675956016 9.561759617957234
Cd 16.185289319943347 9.365999487478135 13.972685864606225
Cd 14.486246145909412 9.866042022923411 10.084138766792394
Cd 8.195110059835574 16.937487017838915 9.356380249990815
Cd 13.03386892008353 13.987714302187117 14.722621808998646
Cd 11.571560321552854 9.360837281195286 10.828192735291825
Cd 7.838503727829696 9.501604562359946 12.017584453157843
Cd 17.1369240436874 10.153286771571507 8.29902836383416
Cd 11.046401138168328 15.462671654346726 8.690284165935857
Cd 17.19833445529145 10.10103611715719 11.34027780459429
Cd 16.313268589137877 12.72958474524643 9.872714595195829
Cd 8.135460858994024 10.099570824010609 6.62661065260534
Cd 11.389867363118393 11.53551917073984 13.51531000275837
Cd 9.626794954430311 11.539825072500932 16.75059202281374
Cd 10.321756670629767 8.635613812596665 13.517074307429523
Cd 11.627279715577572 9.553624725880681 16.173699657539267
