31
Energy = -11.92052407 eV
Cd 12.091599114072137 13.868869036938209 9.242578595620355
Cd 14.857389826315647 12.73976550390628 9.870020535464842
Cd 14.469306952341636 15.738312675308945 9.033582534281999
Cd 14.745652879529711 12.17858488869775 12.733161142510163
Cd 14.746207181179864 17.957070753936698 11.108147050501751
Cd 12.115793656603948 11.315319358207352 10.843872011754343
Cd 11.911523530910184 16.646391888316632 10.360165955332208
Cd 9.69933872189809 16.614326259593913 12.335625305317997
Cd 12.316392884173492 18.190713963243148 12.945266458769336
Cd 10.062700058474464 13.644246659281409 11.416652790180352
Cd 17.284864152552846 11.44191816800048 14.209069732171672
Cd 16.208958058132964 15.086195835920444 11.442483582409144
Cd 16.76030463553147 9.150474446152607 12.314261728384722
Cd 13.949432342922298 9.098546860566593 11.401065110308515
Cd 13.166118882364552 14.728917195492317 12.422388323044114
Cd 11.889906552173656 9.041344797886515 13.602735404603939
Cd 14.697803081891347 9.727686206158078 14.671685462176601
Cd 15.07884258487185 16.707107987249938 13.852240045225733
Cd 17.152019407241152 14.485320971028703 14.148170281922932
Cd 9.69349819869722 14.50826236077465 14.383518940058023
Cd 12.102597033709245 16.174673496611746 15.099123420910043
Cd 11.712337627070138 12.394088225230092 13.706813195841434
Cd 14.119464733381177 13.90014573330782 15.118662455714023
Cd 12.274745984409648 10.934755212295931 16.200581168642636
Cd 15.245023384066343 10.580022609162599 17.430991726293513
Cd 13.219084475260912 16.121673048686553 17.88883410328339
Cd 15.990048573794637 17.030928799426096 16.621608505584263
Cd 10.988753928668467 13.693065160557355 16.93239464945163
Cd 16.649658768781602 13.086065664745966 16.696176059441946
Cd 15.956777709881598 15.014823024843755 18.824772825357893
Cd 13.6965590091863 13.053087138560779 17.996054829530145
