48
Energy = -20.18962094 eV
Cd 15.404883153520524 13.684129614525213 9.198946460230863
Cd 18.121901136267343 12.574467911484648 9.997167330832255
Cd 13.821120291742568 13.382494983327497 11.681269475821562
Cd 17.84573232696441 17.306786915878465 11.368355829185283
Cd 16.093482870050163 11.409543547633104 11.949972013228498
Cd 17.84838964221983 15.427127406196202 9.120979009515771
Cd 14.74870647490988 16.251950171465108 10.855402556660458
Cd 12.136221379536735 15.938680815161465 12.371388556192304
Cd 17.89696259625905 19.551133777177863 13.477165703841607
Cd 16.325962870210574 14.499610687993275 12.96522230519098
Cd 15.322299927164332 18.94290240593039 11.885910323388039
Cd 19.28875083148818 11.584391481509838 12.545338681374748
Cd 19.206654906183736 14.611247530602819 12.094092737086752
Cd 14.475505980115427 16.872143981020674 14.167111194984889
Cd 14.5738023384417 12.620242273972979 14.70736654402411
Cd 20.293700625672354 10.649606802169966 15.183371873838903
Cd 19.80743369030234 18.40839851259291 15.594865963792806
Cd 20.754716372769206 16.018538083252604 14.183790562691327
Cd 11.812072873353564 13.383861017441719 14.111496090949311
Cd 17.506460399866032 16.730822187125785 14.449056192668744
Cd 15.141239726977702 19.915032282397952 14.640911796296868
Cd 17.807425110690332 20.653684444084284 16.17593508276639
Cd 10.213155506421339 15.851005896922278 14.664095994675657
Cd 18.89953676319028 13.704702633340885 15.022356345811813
Cd 14.65931029175795 21.308957346570917 17.3120975019065
Cd 16.02750174890662 14.81276300126057 16.298292048179842
Cd 19.006806832634616 15.822513355965313 17.231823353713672
Cd 12.808757361370647 12.651881643980502 17.315636277303238
Cd 13.346535871358864 18.50952310740803 16.601414230625647
Cd 17.184014719304997 11.151135424999351 14.853800378787486
Cd 16.38051420324028 17.968245077952993 16.898312396935328
Cd 12.887242862100956 15.544603993081477 16.282005411550802
Cd 9.97833689464874 16.327183159501566 17.544316592430796
Cd 19.0615359696609 11.847109879792887 17.62671404936712
Cd 19.21186758102073 18.58527636283151 18.490923486349516
Cd 17.01113334993459 20.7157371700093 19.04261547585476
Cd 15.810802501060056 11.842338430378454 17.435970334548244
Cd 17.464792470558535 13.871595349261552 18.922275747411597
Cd 16.97011076954857 17.93689843083112 20.221455990774654
Cd 11.994141018298125 14.932572345495181 19.260669258572545
Cd 11.193599168035222 18.75928665791327 18.60092618375524
Cd 14.73295594502336 16.300955820517586 18.694985367208098
Cd 16.632748964595034 15.226669574341477 21.385252376208243
Cd 13.705552511934721 15.125178161403708 21.9090820071915
Cd 14.518332820011446 13.227441456283183 19.766019545264797
Cd 14.227343241804222 19.31198416965919 19.58152911410903
Cd 14.871579669518827 17.879497100459112 22.351808941957355
Cd 12.13174150091909 17.531523678462012 21.123881366512425
