47
Energy = -20.82198215 eV
Cd 15.637696198982157 15.128408569215305 9.918971348481664
Cd 16.648774631911003 17.275756004900266 12.063221320667612
Cd 12.621004353004432 15.554982282583735 10.481296586476185
Cd 15.103189326608314 10.191593496476049 11.011081024263358
Cd 11.933141938149305 18.49726659436717 11.321008355773225
Cd 16.723193715930446 12.402522837666897 9.972555240308308
Cd 10.760707854128977 13.345655702113008 11.2379686049159
Cd 14.56354653951983 17.835881626832485 10.042243860697614
Cd 18.342544671583614 14.559483965670758 11.232448888359633
Cd 19.270951923844827 16.74527193748438 13.081316418808273
Cd 13.635710893025475 12.749340590922461 10.404365308710698
Cd 14.639632862042491 11.668567260648025 13.902957866213276
Cd 15.690448676986648 14.257600155212916 12.945771082036734
Cd 12.533580659534163 9.526380471832612 14.998115289214802
Cd 11.970368293077135 10.8740130813243 12.33807540762912
Cd 8.89831774717657 18.85281248576028 10.806107040663901
Cd 13.785535401892167 16.518989963504715 13.398137449817595
Cd 10.166711962389522 16.245952885136663 12.185062524207723
Cd 14.57263796588445 19.574699410253288 12.500645752300805
Cd 14.188219870591691 8.225001551052316 12.93704734999148
Cd 17.559594793760187 11.386963803880287 12.655077393930583
Cd 19.746031606906843 16.28873196482736 15.860081039192249
Cd 12.62080689209416 13.830443195921465 13.900390680831052
Cd 10.930960242582994 16.428159127028298 15.067619234316716
Cd 9.385745590991185 13.969374138440747 13.846702308902335
Cd 18.309666097770133 11.17749873436333 15.559081143968697
Cd 11.98245178899888 19.15673773797679 14.19593392666324
Cd 15.939438870107466 13.420860701410172 15.988153272481515
Cd 12.807089552885724 18.418853507468015 16.908827356443705
Cd 18.7588034996998 13.774549099821746 14.088710768089527
Cd 15.345925742190198 19.14152739580417 15.256363400811452
Cd 10.239143966975014 11.33895451518591 14.851432793783978
Cd 16.590666912242543 16.302038048471427 15.173582811307
Cd 12.777441828963168 12.046671122771613 16.630709474288626
Cd 10.293185851159317 13.792720249145285 16.696094148709115
Cd 13.7711009880796 15.377633609572568 16.261068893331295
Cd 16.40657112671144 9.167669533732331 14.659972888505367
Cd 17.193469313046148 11.802875386495693 18.30280949330322
Cd 12.583766251240611 13.984600689491703 18.87518679062058
Cd 14.74042576748602 9.706022973442913 17.146360418519706
Cd 10.92647423926396 16.335921060239325 18.02633945352651
Cd 18.02916562605287 16.014655167633528 18.184501020818818
Cd 15.830503439327563 17.909558562161894 17.86612250636135
Cd 13.607654452856913 16.76414758970857 19.397064439942053
Cd 14.461392439153075 11.774371108436778 19.24335856233474
Cd 15.650202362114188 14.569946641693617 18.93176424624447
Cd 19.28912982015981 13.551058010998906 17.111019362314835
