44
Energy = -19.78805072 eV
Cd 15.037127315388767 8.379059744689387 8.618133747364292
Cd 15.23150646441846 11.439782489266884 13.711925553638668
Cd 12.462750121764623 6.82968523032476 8.62825360585941
Cd 9.360252119338142 10.039968174469006 12.576708698857539
Cd 8.429722170225617 9.489774930105078 6.528623280793919
Cd 13.383493231989938 14.289150955035655 8.867138962696762
Cd 13.624433347203121 9.678076657874243 6.419987284051449
Cd 15.019390638427932 11.565312772470461 8.560530831515806
Cd 13.382252133147304 12.713538630251925 6.3443853747675645
Cd 7.760980838594288 7.1737481408818145 11.161058192332828
Cd 14.90126410058123 8.466797431788349 13.778250116322786
Cd 15.283122325651131 9.958871671910636 11.11156090433068
Cd 6.275030818614606 11.530519815116314 13.485346332658795
Cd 13.921892298493136 7.162638409834511 11.26571322584421
Cd 9.256589660807595 15.243171238263763 11.632524745428963
Cd 12.40293120528556 15.267771351538984 11.683590210614305
Cd 6.770131781930001 8.55192241415816 13.712518672381957
Cd 10.739260445702795 12.137448851688283 15.353465035402534
Cd 8.294117005961867 14.231427663630074 8.731422323735725
Cd 10.824264493339896 7.5340884105087635 11.143166981636647
Cd 10.813521165817823 14.23247327002108 6.593468277963063
Cd 8.129953666771156 10.643767716236908 15.552655871185301
Cd 12.286664581143453 9.934045718471205 9.377894278453347
Cd 9.346553585411032 6.947129702080985 8.465545523544204
Cd 7.866662546104089 12.570979682617228 11.14516861769151
Cd 8.372770775664389 12.532570342708109 6.278896118934042
Cd 6.373847072654843 9.922336093188154 11.005316548439554
Cd 12.334626364993142 10.01055215158466 12.362467769681075
Cd 10.5537046593553 9.005067305597702 15.68003503679003
Cd 6.634925637693897 11.447222049406122 8.395862604700282
Cd 13.287779022634975 13.513827021844717 14.375610355553054
Cd 9.327146315810575 9.994977040078052 9.59970038402742
Cd 10.861935394960275 12.53401019709359 12.138006525361082
Cd 10.860095001183556 12.452505678736184 9.16918929710029
Cd 10.816091286787069 15.099515186419193 14.229205503852087
Cd 9.28974930522442 7.000594807018431 13.83946488078547
Cd 10.933570339051773 11.072867826411018 6.0603217980270285
Cd 6.675020452950555 8.314002659518424 8.537770156282967
Cd 8.258453070102624 13.602328308120612 14.22651698973409
Cd 12.259108896061969 7.150248432458187 13.992549048643104
Cd 13.151078902491452 10.352056715376156 15.46073430995816
Cd 13.880168783252893 12.636050924129279 11.282588960962283
Cd 10.829380077571008 15.816454795264214 9.132201799926825
Cd 11.09600548593902 8.110801564591462 6.389822706055058
