48
Energy = -20.56395734 eV
Cd 16.81577339547177 15.235036053032804 9.557389769580192
Cd 19.069608010161044 17.09331561031537 9.773004742460861
Cd 16.384858180019652 18.07124542487683 10.706918470770248
Cd 17.279603576313185 12.488690330901814 10.842333740942435
Cd 19.72024924570196 14.069245433130144 9.927089416659854
Cd 13.662388122239486 16.652539644733867 11.286347804095605
Cd 14.112305544210198 19.73799140506684 11.47506868658609
Cd 14.343149887485202 13.80531618820556 10.326326129554039
Cd 14.748739302631936 11.280825488020927 11.971326176354642
Cd 18.78220110667539 18.177301453714517 12.554918065770833
Cd 20.91571885284854 16.047842762496643 11.88476200075972
Cd 17.046684203105034 15.55594152204934 12.641782607473047
Cd 16.758759027122014 20.236484999651474 13.421349432465227
Cd 11.134379837010872 14.129688435548626 14.260374587093
Cd 15.178545378296327 17.381003319156758 14.020680780644007
Cd 19.581135322638012 13.519648731214108 12.931311846488718
Cd 16.73274687711842 12.779057898580746 13.868084928806947
Cd 14.084018718904003 14.405827985150202 13.264241625683274
Cd 12.117971388458304 18.36166012148707 13.31478719926156
Cd 15.002311836036702 10.139758247660485 14.748802584628233
Cd 10.176031495006654 17.019989398426947 15.009513168566077
Cd 19.738289960391988 16.086885271336044 14.724107807446789
Cd 12.481198646050782 11.514099184537475 13.853730719845506
Cd 18.44698533814696 18.701877612809852 15.419207916417141
Cd 13.143487314603435 16.02862945628062 15.652533077103309
Cd 14.628907154650223 13.2784349135435 16.046458574646262
Cd 16.81164095268846 15.46460693688512 15.695945871703533
Cd 14.042299859266683 20.586798198258965 14.330823465105938
Cd 14.855544904184125 10.61253976267989 17.742387021448867
Cd 11.561259182532705 12.177119697280968 16.601732255045874
Cd 17.468990000741876 10.97168574531574 16.252385033566537
Cd 19.25792689854333 13.32574009094867 15.882177188764532
Cd 15.035198274089971 16.712243956477824 17.88285241907588
Cd 10.053588958182171 14.860019909141617 17.00754264554148
Cd 15.671052877719863 19.244367244601936 16.47890623117856
Cd 12.473377489774453 19.304486040317496 16.40809477578443
Cd 11.51760753665476 17.36635571357714 18.195331529903793
Cd 16.993077635454746 13.43081222860126 17.98159697585436
Cd 12.43078244419061 11.348164382126694 19.2715863294176
Cd 9.923663981623424 13.187504556918014 19.478119590529914
Cd 13.011153539411296 14.468550583773858 18.264251768910892
Cd 19.52783978504894 15.440722033485201 18.05905082701122
Cd 17.88126595311226 17.84790379816761 18.108737002570983
Cd 15.132144064669337 12.577001954988242 20.1043073695357
Cd 11.295305750011059 15.730246463921958 20.580507790262242
Cd 12.148865970710533 13.07945564404056 21.633518616946997
Cd 17.017481522009984 15.627941796620021 19.93283701292802
Cd 14.266097229159886 15.299608901020548 21.08706894988776
