43
Energy = -17.51065032 eV
Cd 18.44517803029556 11.485098145226061 14.70027174719087
Cd 15.38217853076249 13.438434209024242 10.746801555598367
Cd 13.829585326325757 15.895907114760119 10.19620503562359
Cd 16.17290218472368 16.212248357612985 12.284869314868434
Cd 15.657949522305165 12.187832169926994 15.93858712332088
Cd 20.112655597549594 13.925323532324901 15.038779844145331
Cd 12.262429779118415 14.075746052811944 12.033446958401948
Cd 13.366935248652837 11.322269771809594 11.64461276394247
Cd 19.415919248484464 15.001982224021397 17.962104988511967
Cd 17.107027346054533 13.042626258031877 18.525417248476327
Cd 18.272827021106803 17.968440510172407 16.09578876079775
Cd 13.142091151088765 16.81582589260642 13.57154783833708
Cd 14.979713608004275 19.28639710330566 13.025283185196157
Cd 10.697566299084809 16.461503776086193 10.837506910035717
Cd 12.751757765182129 18.824991512714718 10.821045225426568
Cd 14.67657083449367 14.207558993280484 13.971916497474036
Cd 12.462936980337563 11.97481876354596 14.52233736710524
Cd 15.732073009142958 18.332614051434298 10.265522446532014
Cd 17.962868763044018 13.763575628714387 12.557035707272687
Cd 19.03954829391598 16.411345189819617 13.498391467831544
Cd 16.15348225367578 11.403345554448068 12.868990862571332
Cd 9.32353142019139 15.826607139450607 13.511486326548054
Cd 12.505191809336614 20.726511223642877 13.689968044500729
Cd 20.948117476650264 16.63458549723358 15.951759154906902
Cd 10.426910412244103 18.567468533108077 13.050787098622754
Cd 11.472959488521488 14.649370196644888 15.194668489403432
Cd 10.894103346294168 19.550142923577575 15.929329960744848
Cd 17.185985859678432 14.767451278655093 15.64739502101717
Cd 19.82863833337175 12.01897158029371 17.416237335121913
Cd 12.453898528814204 17.193156271063497 16.63348780376935
Cd 15.340774698151193 17.26409561971363 15.552940917101397
Cd 13.537766872589433 10.28758956294236 16.811615939985533
Cd 14.1940281076017 9.432455591583155 13.907797524134631
Cd 17.852063234361072 19.193564856626647 13.321251957906023
Cd 14.179135957604496 14.643274594090865 16.92874653673979
Cd 11.301853929873463 14.370013129243818 18.184417078839008
Cd 17.459833248767165 10.175331793589244 17.359481000975105
Cd 15.76296312194097 8.209625169311934 16.081567011010392
Cd 11.270053742096508 16.975952253252487 19.464894480916886
Cd 12.896480615287455 12.072683886742 18.98946193810155
Cd 14.194001797223878 17.043420966646124 19.31521942608841
Cd 16.814280338564675 16.43886689552756 18.27496582900581
Cd 14.805971445395588 14.193716803290881 19.94879885380876
