42
Energy = -16.64850911 eV
Cd 19.08474752347236 11.03502105679816 16.348202834104725
Cd 18.31923947156583 10.771862485155815 20.10415128560414
Cd 21.127298020941748 13.2004454907851 15.927053202660437
Cd 20.759796099291375 12.166989475532397 18.756562442249784
Cd 19.443867888489496 13.357234527810625 21.121646904557664
Cd 15.290322866250479 11.626235477068791 19.762867463535734
Cd 16.676073368316175 9.822672965191195 17.73348197943229
Cd 17.65235614413743 13.273607912983866 18.04031230540716
Cd 17.10885437218128 15.089726648735954 21.29614925570907
Cd 14.887887760110504 14.692650460166567 19.34427192395791
Cd 20.054800574988544 15.939450404767605 16.04545963404551
Cd 19.210253481492778 15.617924113699042 18.92019816011678
Cd 16.48791362173076 17.246783148549554 19.25940959887031
Cd 18.052034572453877 13.420297389182808 14.759131934451595
Cd 18.484894095197834 16.07973551050719 13.552700858338687
Cd 16.22048055354944 10.943092486172464 15.003353329781671
Cd 19.087537420039542 18.405815985080796 17.875427084821936
Cd 14.871820965407952 12.952574114696876 16.96504287632293
Cd 13.737261647646255 17.211789496746437 18.16783923233861
Cd 18.940196771323834 18.714308051168484 14.93963458058967
Cd 15.56061878970689 15.284701209714749 13.586423554752514
Cd 11.896522981142402 18.98992147564515 10.672902893005269
Cd 9.63173678384143 17.311807171186604 11.66006616097438
Cd 14.525749980017224 20.057113227226548 9.634833249970738
Cd 13.987750728023702 20.162096165477358 12.664151260651584
Cd 11.32444695005416 19.023839268112184 13.734463463626328
Cd 9.724293977779888 14.324616009282261 11.333546485800408
Cd 11.934282983866455 16.034807861239436 9.948286840726809
Cd 12.838455962473542 16.47245853501829 12.97959297858939
Cd 9.07409599936712 17.12360497326841 14.586284685838557
Cd 10.765584443195158 14.701411070350726 14.447446941498475
Cd 15.001854481878542 17.387640800709175 10.944926131501363
Cd 13.861101907310923 18.45082166619777 15.294957265352295
Cd 11.243194972525904 17.617449408798972 16.57496647118712
Cd 14.379002399753755 14.503156871699495 10.713913574616216
Cd 16.32021266834995 18.32681438685341 13.49233513548834
Cd 12.24845107416579 13.193025583217135 12.350815598099718
Cd 16.385343750310422 18.960565768681448 16.69460312393717
Cd 13.423029920582398 15.26541287318422 15.798117547559489
Cd 16.663349249919268 15.705594505808008 16.489999977688093
Cd 15.369242080590537 12.447860496385374 12.549610334193948
Cd 13.237794680832538 11.98081745541802 14.818613422321032
