5
Energy = -0.86293821 eV
Cd 9.731522799999963 9.084435000000045 10.896443000000069
Cd 6.498683799999946 8.504522000000032 9.995194000000085
Cd 9.22298479999999 7.704730999999997 8.130800000000097
Cd 11.849595799999967 9.839400999999972 8.349795000000036
Cd 8.574492800000003 10.744191000000084 8.505048000000107
