55
Energy = -19.8981528 eV
Cd 12.450542 12.450542 12.450542
Cd 12.450542 14.059952714532185 15.037902167144813
Cd 12.450542 14.059952714532185 9.863181832855188
Cd 12.450542 10.841131285467815 15.037902167144813
Cd 12.450542 10.841131285467815 9.863181832855188
Cd 14.059952714532185 15.037902167144813 12.450542
Cd 10.841131285467815 15.037902167144813 12.450542
Cd 14.059952714532185 9.863181832855188 12.450542
Cd 10.841131285467815 9.863181832855188 12.450542
Cd 15.037902167144813 12.450542 14.059952714532185
Cd 15.037902167144813 12.450542 10.841131285467815
Cd 9.863181832855188 12.450542 14.059952714532185
Cd 9.863181832855188 12.450542 10.841131285467815
Cd 7.139114492471837 12.450542 9.125183488679427
Cd 12.450542 15.775900511320573 17.761967734880294
Cd 12.450542 15.775900511320573 7.139114492471837
Cd 12.450542 9.125183488679427 17.761967734880294
Cd 12.450542 9.125183488679427 7.139114492471837
Cd 15.775900511320573 17.761967734880294 12.450542
Cd 9.125183488679427 17.761967734880294 12.450542
Cd 15.775900511320573 7.139114492471837 12.450542
Cd 9.125183488679427 7.139114492471837 12.450542
Cd 17.761967734880294 12.450542 15.775900511320573
Cd 17.761967734880294 12.450542 9.125183488679427
Cd 7.139114492471837 12.450542 15.775900511320573
Cd 12.450542 17.78369643413361 12.450542
Cd 12.450542 7.117387565866391 12.450542
Cd 7.117387565866391 12.450542 12.450542
Cd 17.78369643413361 12.450542 12.450542
Cd 12.450542 12.450542 7.117387565866391
Cd 12.450542 12.450542 17.78369643413361
Cd 14.106533877342477 8.124906507123974 15.107659036941248
Cd 10.794551895305396 8.124906507123974 15.107659036941248
Cd 14.106533877342477 8.124906507123974 9.793424963058753
Cd 10.794551895305396 8.124906507123974 9.793424963058753
Cd 16.776176606552003 9.793424963058753 10.794551895305396
Cd 16.776176606552003 9.793424963058753 14.106533877342477
Cd 8.124906507123974 9.793424963058753 10.794551895305396
Cd 8.124906507123974 9.793424963058753 14.106533877342477
Cd 14.106533877342477 16.776176606552003 9.793424963058753
Cd 14.106533877342477 16.776176606552003 15.107659036941248
Cd 10.794551895305396 16.776176606552003 9.793424963058753
Cd 10.794551895305396 16.776176606552003 15.107659036941248
Cd 9.793424963058753 14.106533877342477 8.124906507123974
Cd 15.107659036941248 14.106533877342477 8.124906507123974
Cd 9.793424963058753 10.794551895305396 8.124906507123974
Cd 15.107659036941248 10.794551895305396 8.124906507123974
Cd 8.124906507123974 15.107659036941248 14.106533877342477
Cd 8.124906507123974 15.107659036941248 10.794551895305396
Cd 9.793424963058753 10.794551895305396 16.776176606552003
Cd 15.107659036941248 10.794551895305396 16.776176606552003
Cd 15.107659036941248 14.106533877342477 16.776176606552003
Cd 9.793424963058753 14.106533877342477 16.776176606552003
Cd 16.776176606552003 15.107659036941248 10.794551895305396
Cd 16.776176606552003 15.107659036941248 14.106533877342477
