53
Energy = -23.69568429 eV
Cd 9.26586633374409 16.999853276559115 10.83174859641913
Cd 11.726107391266194 12.440702679557345 15.249238756645388
Cd 16.09962317210676 8.094363875936143 9.296811992210761
Cd 13.264257429894045 15.997819263184308 13.954051439523674
Cd 11.527300408727534 14.034036959990933 18.604676532817862
Cd 6.060289714272427 11.587312119264467 13.999540848936755
Cd 11.071649313447464 9.835081944129795 13.515821282468698
Cd 13.108455858825884 7.624226217624994 14.374044238116593
Cd 15.986840305925616 8.689641371051327 13.495936877657329
Cd 7.545095528069853 15.919582035854102 8.698524924944863
Cd 11.535808624231187 7.724617853971553 11.53700870825742
Cd 15.773480898812725 12.251871901487485 16.350822339601855
Cd 13.256039124624571 11.643082128722707 17.924265523621187
Cd 8.788818096815689 8.150824766354749 10.74117570731751
Cd 17.322427370945306 10.007759778843822 11.089230906729576
Cd 11.061625619544458 15.366201251735458 15.944343281587665
Cd 10.007127001579235 15.4328542772502 13.283759716129955
Cd 9.498529222861954 12.495773185757479 13.007583623806637
Cd 16.263991494919654 14.272058957493924 8.549555459445823
Cd 13.716766516551635 15.89971221098659 8.545044957406619
Cd 10.951155968822892 10.978375736672954 10.761694855002762
Cd 8.787259868480325 13.659322979438494 16.829228435181637
Cd 12.50620942570404 13.219176772777974 12.517256585335666
Cd 13.332229962286108 7.266414681684513 9.035711158285265
Cd 17.46212724586259 9.7377837394637 15.903270833543871
Cd 7.2829832253605336 14.972576017595985 11.88900423893957
Cd 13.858806772818143 14.526469639528134 16.551523286016113
Cd 11.591969860167005 9.28416906152717 16.445523102333805
Cd 11.211065559793001 11.682523892697095 7.420406607266002
Cd 7.147521295387848 13.086073777531707 9.678805224960598
Cd 12.046159185684955 14.429966087000944 6.610888786055582
Cd 9.181980505106564 13.855015874638113 7.431069953607851
Cd 10.2541911964887 11.386354024225888 18.074266614977514
Cd 14.56828749627244 9.371978548923801 16.47021458766516
Cd 13.774267389084608 10.150927576003113 11.118145689289083
Cd 10.916878731938239 8.79490276932893 8.502697860794498
Cd 14.514448138389874 12.803757855952377 6.692062236598593
Cd 14.425585040575566 6.948584287545073 11.748554615319756
Cd 10.276907117592922 13.820391511752161 10.32892147651066
Cd 15.461739451605252 13.977160876083298 13.866829533221157
Cd 16.395801175757477 11.157832719601615 8.46702027364303
Cd 8.649584967533269 10.806897583056994 8.65852299194341
Cd 13.993578387755829 11.058871864850309 13.895797258621139
Cd 13.646368752254658 10.136500383795587 8.015222066323444
Cd 12.169816117071242 16.110320740429476 11.137987140318579
Cd 17.416539075343437 11.579021463150681 13.586103442390415
Cd 13.055180811093882 12.960415656322308 9.624088699312129
Cd 6.998647333819804 14.348871899164187 14.682935386234325
Cd 15.086711371453843 15.498145719812344 11.253933895233946
Cd 8.826234158250097 10.858374039683339 15.504539290196576
Cd 15.667885915196335 12.55705154736661 11.112706908220611
Cd 7.598944707727572 10.679088727057668 11.56517984975217
Cd 10.730760755578473 16.49723228300617 8.294627796684287
