53
Energy = -23.08294067 eV
Cd 11.086825191220237 8.544342504144241 6.643176227818872
Cd 10.209616046830488 11.363419106854675 6.1522381075342985
Cd 11.997144681599456 13.823654086354665 7.1771303638902975
Cd 8.185233593219323 9.114655796063902 6.111442800652199
Cd 15.672439038079396 12.188238093396443 7.706051350266774
Cd 13.52930266522415 7.92372335297275 8.315939693820503
Cd 9.79498969502864 15.857427502137478 7.976520894141903
Cd 12.187988316428822 16.494440129941523 9.469509421235566
Cd 6.916631877907416 11.707515214830853 6.550829917669194
Cd 14.586766134078026 14.812182330863621 8.303850422506436
Cd 12.868495746228383 10.949261287743253 7.665936144570074
Cd 6.470073002132839 9.600226884360584 8.740640995420431
Cd 16.577828957577044 13.368088473499709 10.390281873106462
Cd 7.925308192331554 6.831041718869898 8.01350036504998
Cd 16.03132266949499 9.524965743121564 8.8484700053136
Cd 10.93309939636294 6.102566706903547 8.268728889715243
Cd 12.504231174779145 6.311214487837447 10.829654369330123
Cd 9.453419819018494 12.503587210305321 8.767526965602682
Cd 11.820342853100577 13.470857123600904 10.270397855057821
Cd 14.079542986494141 11.62032698192895 10.479064113287452
Cd 9.53494020283559 9.580704098741572 9.112820962513794
Cd 12.072637648864864 9.45216633313581 10.441899844306333
Cd 8.395984121829326 14.784276349690773 10.496005129958174
Cd 14.454195244602712 15.466906478563484 11.245602092483233
Cd 7.358261676523911 14.52299268275415 7.003129427441922
Cd 10.174737881251845 11.331418488391021 11.645893686012744
Cd 7.2459628628791934 11.76822585389262 10.692350030214778
Cd 7.763709226825124 8.968954524156588 11.90410313663619
Cd 10.636087011060503 8.330355469084646 13.07251309870582
Cd 11.868189900036908 16.904638560201597 12.439231911299478
Cd 15.160289533893232 8.02733465805395 11.225703502765834
Cd 9.47972755848676 6.936280751106492 10.686904808219643
Cd 7.449670984441744 14.136756049820553 13.216576656475173
Cd 10.421993161445213 14.25954678813462 12.83315257307802
Cd 14.094448349783754 15.787346560312429 14.186758982506534
Cd 13.327812917718592 10.021819770551284 13.117626305443942
Cd 16.542391505266043 10.777073447576287 12.158157250571904
Cd 13.159148345675947 12.998954804047706 12.97653167817965
Cd 8.426676554283244 15.632321769350593 15.708126300865406
Cd 16.226567544763814 13.651536223607836 13.306317634884147
Cd 13.54688261158858 6.6939129437153975 13.490012036618436
Cd 10.9619439305448 11.608343261102466 14.46773117498765
Cd 7.640655162552127 11.264149161768053 13.67226216367873
Cd 8.918620576866005 9.309967227703801 15.417652485791088
Cd 11.409454632183383 15.352631641275996 15.484005933375345
Cd 8.197393436492769 12.586794111926329 16.247538634602027
Cd 14.722097753675063 8.412545295549437 15.46335921877818
Cd 15.552461304741534 11.26887585054139 14.97027508979017
Cd 11.6759760328267 8.177313690432877 15.947811534525428
Cd 13.727711747444271 13.427108883767497 16.00932897432443
Cd 10.95908753486812 12.971589294514622 17.229130958108147
Cd 10.314039284292488 10.20192172617513 17.997628969935764
Cd 13.144041160148065 10.667901952450134 16.847366474758495
