6
Energy = -0.98284999 eV
Cd 14.063850220805662 16.318386938265302 12.725098624986897
Cd 13.659930372686205 11.018154762884661 11.386000386921014
Cd 12.306194481740027 10.053982957005907 14.0201319389832
Cd 10.67645854698987 11.793320842687143 11.946417536358256
Cd 11.381448163945132 8.590303251611385 11.013783552202488
Cd 13.135319587567496 13.28265588354193 13.717249691295562
