 running on   32 total cores
 distrk:  each k-point on   32 cores,    1 groups
 distr:  one band on    8 cores,    4 groups
 using from now: INCAR     
 vasp.5.3.5 31Mar14 (build Feb 01 2018 12:10:03) gamma-only                     
  
 POSCAR found type information on POSCAR  Ag
 POSCAR found :  1 types and      13 ions
 scaLAPACK will be used
 LDA part: xc-table for Pade appr. of Perdew
 POSCAR, INCAR and KPOINTS ok, starting setup
 WARNING: small aliasing (wrap around) errors must be expected
 FFT: planning ...
 WAVECAR not read
 entering main loop
       N       E                     dE             d eps       ncg     rms          rms(c)
DAV:   1     0.128394905969E+04    0.12839E+04   -0.22883E+04   368   0.564E+02
DAV:   2     0.433766691335E+03   -0.85018E+03   -0.75039E+03   680   0.112E+02
DAV:   3     0.147073599763E+02   -0.41906E+03   -0.39035E+03   528   0.927E+01
DAV:   4    -0.226438469784E+02   -0.37351E+02   -0.35973E+02   416   0.315E+01
DAV:   5    -0.233268051080E+02   -0.68296E+00   -0.68128E+00   416   0.495E+00    0.202E+01
DAV:   6    -0.565318865370E+01    0.17674E+02   -0.54682E+01   380   0.157E+01    0.962E+00
DAV:   7    -0.717646138755E+01   -0.15233E+01   -0.25903E+00   408   0.612E+00    0.587E+00
DAV:   8    -0.411408910065E+01    0.30624E+01   -0.13760E+00   396   0.454E+00    0.288E+00
DAV:   9    -0.837673089933E+01   -0.42626E+01   -0.13035E+00   400   0.233E+00    0.165E+00
DAV:  10    -0.128463447005E+02   -0.44696E+01   -0.13474E+00   376   0.232E+00    0.123E+00
DAV:  11    -0.171690280162E+02   -0.43227E+01   -0.15794E+00   376   0.226E+00    0.827E-01
DAV:  12    -0.195759664501E+02   -0.24069E+01   -0.64778E-01   376   0.124E+00    0.577E-01
DAV:  13    -0.216427197215E+02   -0.20668E+01   -0.48375E-01   368   0.103E+00    0.190E+00
DAV:  14    -0.216726834660E+02   -0.29964E-01   -0.10243E-02   424   0.259E-01    0.182E+00
DAV:  15    -0.216984126118E+02   -0.25729E-01   -0.15154E-03   388   0.144E-01    0.178E+00
DAV:  16    -0.218532051643E+02   -0.15479E+00   -0.27555E-02   408   0.815E-01    0.144E+00
DAV:  17    -0.223546023610E+02   -0.50140E+00   -0.13271E-01   372   0.143E+00    0.783E-01
DAV:  18    -0.226234274873E+02   -0.26883E+00   -0.42047E-02   392   0.765E-01    0.431E-01
DAV:  19    -0.227689441730E+02   -0.14552E+00   -0.71072E-03   392   0.291E-01    0.293E-01
DAV:  20    -0.229357199693E+02   -0.16678E+00   -0.10748E-02   380   0.208E-01    0.136E-01
DAV:  21    -0.229719439579E+02   -0.36224E-01   -0.38073E-03   396   0.219E-01    0.422E-02
DAV:  22    -0.229836769433E+02   -0.11733E-01   -0.58861E-04   280   0.724E-02    0.299E-02
DAV:  23    -0.229936889676E+02   -0.10012E-01   -0.19216E-03   328   0.642E-02    0.301E-02
DAV:  24    -0.229959587780E+02   -0.22698E-02   -0.70731E-04   268   0.591E-02    0.164E-02
DAV:  25    -0.229972017141E+02   -0.12429E-02   -0.37600E-04   272   0.476E-02    0.109E-02
DAV:  26    -0.229976712751E+02   -0.46956E-03   -0.24953E-04   272   0.226E-02    0.821E-03
DAV:  27    -0.229979780047E+02   -0.30673E-03   -0.13684E-04   264   0.144E-02    0.730E-03
DAV:  28    -0.229981939111E+02   -0.21591E-03   -0.45763E-05   272   0.150E-02    0.447E-03
DAV:  29    -0.229985315048E+02   -0.33759E-03   -0.34088E-05   264   0.103E-02    0.357E-03
DAV:  30    -0.229988135608E+02   -0.28206E-03   -0.20029E-05   264   0.682E-03    0.313E-03
DAV:  31    -0.229989387848E+02   -0.12522E-03   -0.54043E-06   256   0.675E-03    0.126E-03
DAV:  32    -0.229990394517E+02   -0.10067E-03   -0.22694E-06   248   0.321E-03    0.759E-04
DAV:  33    -0.229990898120E+02   -0.50360E-04   -0.12095E-06   264   0.181E-03
   1 F= -.22999090E+02 E0= -.22999090E+02  d E =-.229991E+02  mag=     0.9998
 curvature:   0.00 expect dE= 0.000E+00 dE for cont linesearch  0.000E+00
 trial: gam= 0.00000 g(F)=  0.352E-01 g(S)=  0.000E+00 ort = 0.000E+00 (trialstep = 0.100E+01)
 search vector abs. value=  0.352E-01
 bond charge predicted
       N       E                     dE             d eps       ncg     rms          rms(c)
DAV:   1    -0.230321206153E+02   -0.33081E-01   -0.23707E+00   392   0.436E+00    0.126E-01
DAV:   2    -0.230331818654E+02   -0.10613E-02   -0.11321E-02   400   0.418E-01    0.910E-02
DAV:   3    -0.230330598872E+02    0.12198E-03   -0.24209E-04   272   0.590E-02    0.539E-02
DAV:   4    -0.230328109482E+02    0.24894E-03   -0.17746E-04   272   0.407E-02    0.131E-02
DAV:   5    -0.230328121340E+02   -0.11858E-05   -0.21770E-05   256   0.167E-02
   2 F= -.23032812E+02 E0= -.23032812E+02  d E =-.337223E-01  mag=     0.9999
 ZBRENT: can't locate minimum, use default step
 trial-energy change:   -0.033722  1 .order   -0.034111   -0.035181   -0.033040
 step:   4.0000(harm= 16.4345)  dis= 0.02501  next Energy=   -23.288181 (dE=-0.289E+00)
 bond charge predicted
       N       E                     dE             d eps       ncg     rms          rms(c)
DAV:   1    -0.231131724285E+02   -0.80361E-01   -0.21357E+01   368   0.131E+01    0.347E-01
DAV:   2    -0.231226224311E+02   -0.94500E-02   -0.10083E-01   392   0.125E+00    0.265E-01
DAV:   3    -0.231220631962E+02    0.55923E-03   -0.19477E-03   400   0.166E-01    0.166E-01
DAV:   4    -0.231213130785E+02    0.75012E-03   -0.11939E-03   392   0.105E-01    0.355E-02
DAV:   5    -0.231214425177E+02   -0.12944E-03   -0.76976E-05   264   0.351E-02    0.189E-02
DAV:   6    -0.231217149874E+02   -0.27247E-03   -0.41733E-05   264   0.147E-02    0.120E-02
DAV:   7    -0.231220660019E+02   -0.35101E-03   -0.37139E-05   264   0.138E-02    0.755E-03
DAV:   8    -0.231225009365E+02   -0.43493E-03   -0.58713E-05   268   0.112E-02    0.554E-03
DAV:   9    -0.231229232042E+02   -0.42227E-03   -0.75009E-05   272   0.121E-02    0.349E-03
DAV:  10    -0.231231895379E+02   -0.26633E-03   -0.40282E-05   272   0.836E-03    0.192E-03
DAV:  11    -0.231233388240E+02   -0.14929E-03   -0.19364E-05   264   0.565E-03    0.102E-03
DAV:  12    -0.231233758488E+02   -0.37025E-04   -0.12421E-06   256   0.231E-03
   3 F= -.23123376E+02 E0= -.23123376E+02  d E =-.124286E+00  mag=     1.0000
 curvature:  -2.88 expect dE=-0.622E-01 dE for cont linesearch -0.602E-01
 ZBRENT: increasing intervall
 opt :  10.0000  next Energy=   -23.250394 (dE=-0.251E+00)
 bond charge predicted
       N       E                     dE             d eps       ncg     rms          rms(c)
DAV:   1    -0.232145978107E+02   -0.91259E-01   -0.85781E+01   368   0.263E+01    0.594E-01
DAV:   2    -0.232536137890E+02   -0.39016E-01   -0.39984E-01   392   0.251E+00    0.497E-01
DAV:   3    -0.232530349593E+02    0.57883E-03   -0.65300E-03   408   0.308E-01    0.346E-01
DAV:   4    -0.232520602852E+02    0.97467E-03   -0.40476E-03   400   0.191E-01    0.850E-02
DAV:   5    -0.232521278754E+02   -0.67590E-04   -0.10800E-04   256   0.555E-02
   4 F= -.23252128E+02 E0= -.23252128E+02  d E =-.253038E+00  mag=     1.0000
 curvature:  -6.08 expect dE=-0.677E-01 dE for cont linesearch -0.477E-01
 ZBRENT: increasing intervall
 opt :  22.0000  next Energy=   -23.325554 (dE=-0.326E+00)
 bond charge predicted
       N       E                     dE             d eps       ncg     rms          rms(c)
DAV:   1    -0.231892197969E+02    0.62840E-01   -0.34834E+02   368   0.537E+01    0.950E-01
DAV:   2    -0.233506401355E+02   -0.16142E+00   -0.16434E+00   400   0.518E+00    0.937E-01
DAV:   3    -0.233504878317E+02    0.15230E-03   -0.25383E-02   392   0.602E-01    0.712E-01
DAV:   4    -0.233467361029E+02    0.37517E-02   -0.10161E-02   392   0.306E-01    0.351E-01
DAV:   5    -0.233471043774E+02   -0.36827E-03   -0.28380E-03   396   0.169E-01    0.112E-01
DAV:   6    -0.233473121237E+02   -0.20775E-03   -0.23545E-04   264   0.462E-02    0.648E-02
DAV:   7    -0.233476238693E+02   -0.31175E-03   -0.16888E-04   280   0.404E-02    0.243E-02
DAV:   8    -0.233479387085E+02   -0.31484E-03   -0.37353E-05   264   0.211E-02    0.792E-03
DAV:   9    -0.233481637280E+02   -0.22502E-03   -0.11779E-05   256   0.109E-02    0.338E-03
DAV:  10    -0.233482954483E+02   -0.13172E-03   -0.31619E-06   248   0.475E-03    0.222E-03
DAV:  11    -0.233485506768E+02   -0.25523E-03   -0.91107E-06   264   0.487E-03    0.226E-03
DAV:  12    -0.233486367025E+02   -0.86026E-04   -0.29465E-06   256   0.303E-03
   5 F= -.23348637E+02 E0= -.23348637E+02  d E =-.349547E+00  mag=     1.0000
 curvature:  -9.36 expect dE=-0.944E-01 dE for cont linesearch -0.153E-03
 trial: gam= 0.26518 g(F)=  0.101E-01 g(S)=  0.000E+00 ort = 0.758E-03 (trialstep = 0.520E+01)
 search vector abs. value=  0.130E-01
 bond charge predicted
       N       E                     dE             d eps       ncg     rms          rms(c)
DAV:   1    -0.233872840435E+02   -0.38733E-01   -0.23570E+01   368   0.138E+01    0.200E-01
DAV:   2    -0.233983340538E+02   -0.11050E-01   -0.11454E-01   384   0.135E+00    0.165E-01
DAV:   3    -0.233982826008E+02    0.51453E-04   -0.19195E-03   400   0.180E-01    0.113E-01
DAV:   4    -0.233980859091E+02    0.19669E-03   -0.40137E-04   368   0.628E-02    0.614E-02
DAV:   5    -0.233980769620E+02    0.89471E-05   -0.32880E-04   296   0.572E-02
   6 F= -.23398077E+02 E0= -.23398077E+02  d E =-.494403E-01  mag=     1.0000
 ZBRENT: can't locate minimum, use default step
 trial-energy change:   -0.049440  1 .order   -0.049957   -0.053501   -0.046414
 step:  20.8000(harm= 39.2557)  dis= 0.07065  next Energy=   -23.550580 (dE=-0.202E+00)
 bond charge predicted
       N       E                     dE             d eps       ncg     rms          rms(c)
DAV:   1    -0.233947803127E+02    0.33056E-02   -0.21395E+02   368   0.418E+01    0.767E-01
DAV:   2    -0.234976711025E+02   -0.10289E+00   -0.10615E+00   392   0.414E+00    0.494E-01
DAV:   3    -0.234968837592E+02    0.78734E-03   -0.17921E-02   396   0.556E-01    0.318E-01
DAV:   4    -0.234953817878E+02    0.15020E-02   -0.40188E-03   392   0.198E-01    0.151E-01
DAV:   5    -0.234955031078E+02   -0.12132E-03   -0.15641E-03   392   0.123E-01    0.457E-02
DAV:   6    -0.234956064670E+02   -0.10336E-03   -0.10668E-04   256   0.329E-02    0.272E-02
DAV:   7    -0.234957707684E+02   -0.16430E-03   -0.50725E-05   260   0.220E-02    0.889E-03
DAV:   8    -0.234959272632E+02   -0.15649E-03   -0.87013E-06   260   0.899E-03    0.298E-03
DAV:   9    -0.234960351930E+02   -0.10793E-03   -0.32929E-06   256   0.487E-03    0.193E-03
DAV:  10    -0.234961291623E+02   -0.93969E-04   -0.25904E-06   256   0.264E-03
   7 F= -.23496129E+02 E0= -.23496129E+02  d E =-.147492E+00  mag=     1.0000
 curvature: -17.47 expect dE=-0.666E-01 dE for cont linesearch -0.185E-01
 ZBRENT: increasing intervall
 opt :  52.0000  next Energy=   -23.448814 (dE=-0.100E+00)
 bond charge predicted
       N       E                     dE             d eps       ncg     rms          rms(c)
DAV:   1    -0.229866967534E+02    0.50934E+00   -0.88179E+02   368   0.871E+01    0.238E+00
DAV:   2    -0.234351365214E+02   -0.44844E+00   -0.45859E+00   400   0.883E+00    0.108E+00
DAV:   3    -0.234314088358E+02    0.37277E-02   -0.79440E-02   384   0.120E+00    0.651E-01
DAV:   4    -0.234262829292E+02    0.51259E-02   -0.14823E-02   400   0.387E-01    0.311E-01
DAV:   5    -0.234265939274E+02   -0.31100E-03   -0.42910E-03   392   0.207E-01    0.810E-02
DAV:   6    -0.234269041508E+02   -0.31022E-03   -0.35672E-04   320   0.638E-02    0.522E-02
DAV:   7    -0.234273182683E+02   -0.41412E-03   -0.10379E-04   268   0.318E-02    0.183E-02
DAV:   8    -0.234276659778E+02   -0.34771E-03   -0.18518E-05   260   0.131E-02    0.608E-03
DAV:   9    -0.234278948745E+02   -0.22890E-03   -0.89126E-06   264   0.696E-03    0.348E-03
DAV:  10    -0.234280978226E+02   -0.20295E-03   -0.65168E-06   264   0.410E-03    0.250E-03
DAV:  11    -0.234283815275E+02   -0.28370E-03   -0.19464E-05   260   0.503E-03    0.181E-03
DAV:  12    -0.234284751221E+02   -0.93595E-04   -0.62602E-06   264   0.341E-03
   8 F= -.23428475E+02 E0= -.23428475E+02  d E =-.798384E-01  mag=     1.0000
 curvature:  44.69 expect dE= 0.123E+01 dE for cont linesearch  0.246E+00
 ZBRENT: bracketing found
 ZBRENT: interpolating
 opt :  30.3055  next Energy=   -23.513736 (dE=-0.165E+00)
 bond charge predicted
       N       E                     dE             d eps       ncg     rms          rms(c)
DAV:   1    -0.233228792058E+02    0.10550E+00   -0.41782E+02   368   0.590E+01    0.924E-01
DAV:   2    -0.235196744630E+02   -0.19680E+00   -0.20058E+00   400   0.579E+00    0.961E-01
DAV:   3    -0.235194332965E+02    0.24117E-03   -0.32901E-02   400   0.728E-01    0.696E-01
DAV:   4    -0.235149600165E+02    0.44733E-02   -0.77595E-03   400   0.272E-01    0.440E-01
DAV:   5    -0.235145707706E+02    0.38925E-03   -0.68362E-03   400   0.251E-01    0.144E-01
DAV:   6    -0.235146621256E+02   -0.91355E-04   -0.17345E-04   272   0.459E-02
   9 F= -.23514662E+02 E0= -.23514662E+02  d E =-.166025E+00  mag=     1.0000
 curvature:  -3.19 expect dE=-0.180E-01 dE for cont linesearch -0.897E-06
 trial: gam= 0.57679 g(F)=  0.563E-02 g(S)=  0.000E+00 ort = 0.603E-04 (trialstep = 0.102E+02)
 search vector abs. value=  0.100E-01
 bond charge predicted
       N       E                     dE             d eps       ncg     rms          rms(c)
DAV:   1    -0.235262879086E+02   -0.11717E-01   -0.70521E+01   368   0.238E+01    0.393E-01
DAV:   2    -0.235599334827E+02   -0.33646E-01   -0.34507E-01   400   0.233E+00    0.286E-01
DAV:   3    -0.235597607448E+02    0.17274E-03   -0.56774E-03   400   0.307E-01    0.201E-01
DAV:   4    -0.235593004928E+02    0.46025E-03   -0.16896E-03   400   0.126E-01    0.836E-02
DAV:   5    -0.235594148172E+02   -0.11432E-03   -0.49276E-04   400   0.704E-02    0.289E-02
DAV:   6    -0.235594522827E+02   -0.37466E-04   -0.40662E-05   256   0.192E-02
  10 F= -.23559452E+02 E0= -.23559452E+02  d E =-.447902E-01  mag=     1.0000
 trial-energy change:   -0.044790  1 .order   -0.043739   -0.057850   -0.029628
 step:  17.9298(harm= 20.9515)  dis= 0.06634  next Energy=   -23.571076 (dE=-0.564E-01)
 bond charge predicted
       N       E                     dE             d eps       ncg     rms          rms(c)
DAV:   1    -0.235552145234E+02    0.42003E-02   -0.40007E+01   368   0.179E+01    0.296E-01
DAV:   2    -0.235742045631E+02   -0.18990E-01   -0.19587E-01   380   0.175E+00    0.215E-01
DAV:   3    -0.235740999722E+02    0.10459E-03   -0.31924E-03   400   0.229E-01    0.149E-01
DAV:   4    -0.235738083379E+02    0.29163E-03   -0.94747E-04   400   0.952E-02    0.626E-02
DAV:   5    -0.235738655955E+02   -0.57258E-04   -0.24370E-04   264   0.525E-02
  11 F= -.23573866E+02 E0= -.23573866E+02  d E =-.592035E-01  mag=     1.0000
 curvature: -17.05 expect dE=-0.328E-01 dE for cont linesearch -0.173E-02
 ZBRENT: increasing intervall
 opt :  33.3471  next Energy=   -23.560216 (dE=-0.456E-01)
 bond charge predicted
       N       E                     dE             d eps       ncg     rms          rms(c)
DAV:   1    -0.234787128587E+02    0.95095E-01   -0.16104E+02   368   0.362E+01    0.687E-01
DAV:   2    -0.235560764303E+02   -0.77364E-01   -0.79979E-01   380   0.356E+00    0.436E-01
DAV:   3    -0.235554507466E+02    0.62568E-03   -0.13145E-02   388   0.472E-01    0.291E-01
DAV:   4    -0.235543758843E+02    0.10749E-02   -0.37585E-03   388   0.189E-01    0.114E-01
DAV:   5    -0.235545688388E+02   -0.19295E-03   -0.72854E-04   400   0.880E-02    0.380E-02
DAV:   6    -0.235546662621E+02   -0.97423E-04   -0.78452E-05   248   0.273E-02
  12 F= -.23554666E+02 E0= -.23554666E+02  d E =-.400041E-01  mag=     1.0000
 curvature: 134.78 expect dE= 0.107E+01 dE for cont linesearch  0.153E+00
 ZBRENT: bracketing found
 ZBRENT: interpolating
 opt :  21.4734  next Energy=   -23.575649 (dE=-0.610E-01)
 bond charge predicted
       N       E                     dE             d eps       ncg     rms          rms(c)
DAV:   1    -0.235311560740E+02    0.23413E-01   -0.95258E+01   368   0.278E+01    0.418E-01
DAV:   2    -0.235762634587E+02   -0.45107E-01   -0.46092E-01   400   0.270E+00    0.374E-01
DAV:   3    -0.235761437646E+02    0.11969E-03   -0.73789E-03   400   0.340E-01    0.269E-01
DAV:   4    -0.235753422322E+02    0.80153E-03   -0.21010E-03   400   0.142E-01    0.138E-01
DAV:   5    -0.235753950654E+02   -0.52833E-04   -0.10860E-03   400   0.103E-01    0.446E-02
DAV:   6    -0.235754164362E+02   -0.21371E-04   -0.46137E-05   256   0.212E-02
  13 F= -.23575416E+02 E0= -.23575416E+02  d E =-.607543E-01  mag=     1.0000
 curvature:  -1.57 expect dE=-0.390E-02 dE for cont linesearch -0.196E-05
 trial: gam= 0.40558 g(F)=  0.248E-02 g(S)=  0.000E+00 ort =-0.112E-03 (trialstep = 0.125E+02)
 search vector abs. value=  0.404E-02
 bond charge predicted
       N       E                     dE             d eps       ncg     rms          rms(c)
DAV:   1    -0.235780155097E+02   -0.26204E-02   -0.42345E+01   368   0.184E+01    0.279E-01
DAV:   2    -0.235978363373E+02   -0.19821E-01   -0.20378E-01   396   0.180E+00    0.276E-01
DAV:   3    -0.235978019042E+02    0.34433E-04   -0.33235E-03   400   0.225E-01    0.201E-01
DAV:   4    -0.235973226487E+02    0.47926E-03   -0.10856E-03   396   0.106E-01    0.112E-01
DAV:   5    -0.235973003872E+02    0.22262E-04   -0.59604E-04   400   0.771E-02
  14 F= -.23597300E+02 E0= -.23597300E+02  d E =-.218840E-01  mag=     1.0000
 trial-energy change:   -0.021884  1 .order   -0.022363   -0.030406   -0.014319
 step:  34.2553(harm= 23.5721)  dis= 0.06646  next Energy=   -23.607255 (dE=-0.318E-01)
 bond charge predicted
       N       E                     dE             d eps       ncg     rms          rms(c)
DAV:   1    -0.235366739919E+02    0.60649E-01   -0.12976E+02   368   0.324E+01    0.476E-01
DAV:   2    -0.235977097361E+02   -0.61036E-01   -0.62815E-01   392   0.317E+00    0.478E-01
DAV:   3    -0.235976784873E+02    0.31249E-04   -0.10232E-02   400   0.394E-01    0.344E-01
DAV:   4    -0.235963670446E+02    0.13114E-02   -0.26546E-03   396   0.170E-01    0.210E-01
DAV:   5    -0.235963407117E+02    0.26333E-04   -0.19396E-03   400   0.135E-01    0.711E-02
DAV:   6    -0.235963911742E+02   -0.50463E-04   -0.68705E-05   256   0.254E-02
  15 F= -.23596391E+02 E0= -.23596391E+02  d E =-.209747E-01  mag=     1.0000
 curvature:  -1.44 expect dE=-0.429E-02 dE for cont linesearch -0.420E-03
 trial: gam= 0.00000 g(F)=  0.298E-02 g(S)=  0.000E+00 ort =-0.109E-02 (trialstep = 0.168E+02)
 search vector abs. value=  0.298E-02
 bond charge predicted
       N       E                     dE             d eps       ncg     rms          rms(c)
DAV:   1    -0.235894704218E+02    0.68703E-02   -0.57365E+01   368   0.215E+01    0.543E-01
DAV:   2    -0.236156323620E+02   -0.26162E-01   -0.28338E-01   400   0.208E+00    0.357E-01
DAV:   3    -0.236155720954E+02    0.60267E-04   -0.53313E-03   400   0.259E-01    0.212E-01
DAV:   4    -0.236154083633E+02    0.16373E-03   -0.12355E-03   396   0.141E-01    0.568E-02
DAV:   5    -0.236154926515E+02   -0.84288E-04   -0.70136E-05   264   0.479E-02
  16 F= -.23615493E+02 E0= -.23615493E+02  d E =-.191015E-01  mag=     1.0000
 trial-energy change:   -0.019101  1 .order   -0.018969   -0.050122    0.012183
 step:  13.5377(harm= 13.5377)  dis= 0.01591  next Energy=   -23.616552 (dE=-0.202E-01)
 bond charge predicted
       N       E                     dE             d eps       ncg     rms          rms(c)
DAV:   1    -0.236159067654E+02   -0.49840E-03   -0.21935E+00   400   0.420E+00    0.104E-01
DAV:   2    -0.236169544460E+02   -0.10477E-02   -0.10491E-02   400   0.402E-01    0.774E-02
DAV:   3    -0.236169915480E+02   -0.37102E-04   -0.18497E-04   264   0.507E-02
  17 F= -.23616992E+02 E0= -.23616992E+02  d E =-.206004E-01  mag=     1.0000
 curvature:  -6.77 expect dE=-0.420E-02 dE for cont linesearch -0.769E-04
 trial: gam= 0.14665 g(F)=  0.621E-03 g(S)=  0.000E+00 ort = 0.184E-03 (trialstep = 0.162E+02)
 search vector abs. value=  0.739E-03
 bond charge predicted
       N       E                     dE             d eps       ncg     rms          rms(c)
DAV:   1    -0.236181892424E+02   -0.12348E-02   -0.12986E+01   384   0.102E+01    0.159E-01
DAV:   2    -0.236243213353E+02   -0.61321E-02   -0.62652E-02   400   0.978E-01    0.121E-01
DAV:   3    -0.236242791394E+02    0.42196E-04   -0.98604E-04   400   0.117E-01
  18 F= -.23624279E+02 E0= -.23624279E+02  d E =-.728759E-02  mag=     1.0000
 trial-energy change:   -0.007288  1 .order   -0.007354   -0.010474   -0.004234
 step:  27.1433(harm= 27.1433)  dis= 0.02527  next Energy=   -23.625782 (dE=-0.879E-02)
 bond charge predicted
       N       E                     dE             d eps       ncg     rms          rms(c)
DAV:   1    -0.236230614835E+02    0.12599E-02   -0.60013E+00   388   0.692E+00    0.127E-01
DAV:   2    -0.236258121676E+02   -0.27507E-02   -0.28571E-02   408   0.659E-01    0.963E-02
DAV:   3    -0.236257704105E+02    0.41757E-04   -0.45630E-04   400   0.775E-02
  19 F= -.23625770E+02 E0= -.23625770E+02  d E =-.877886E-02  mag=     1.0000
 curvature: -15.48 expect dE=-0.787E-02 dE for cont linesearch -0.102E-04
 trial: gam= 0.76085 g(F)=  0.509E-03 g(S)=  0.000E+00 ort = 0.220E-04 (trialstep = 0.140E+02)
 search vector abs. value=  0.970E-03
 bond charge predicted
       N       E                     dE             d eps       ncg     rms          rms(c)
DAV:   1    -0.236254307085E+02    0.38146E-03   -0.12774E+01   368   0.996E+00    0.127E-01
DAV:   2    -0.236315114851E+02   -0.60808E-02   -0.60988E-02   388   0.956E-01    0.122E-01
DAV:   3    -0.236314977026E+02    0.13783E-04   -0.90238E-04   400   0.110E-01
  20 F= -.23631498E+02 E0= -.23631498E+02  d E =-.572729E-02  mag=     1.0000
 trial-energy change:   -0.005727  1 .order   -0.005870   -0.007350   -0.004390
 step:  34.7441(harm= 34.7441)  dis= 0.06428  next Energy=   -23.634897 (dE=-0.913E-02)
 bond charge predicted
       N       E                     dE             d eps       ncg     rms          rms(c)
DAV:   1    -0.236212899947E+02    0.10221E-01   -0.28163E+01   368   0.148E+01    0.205E-01
DAV:   2    -0.236345239773E+02   -0.13234E-01   -0.13290E-01   400   0.142E+00    0.204E-01
DAV:   3    -0.236344475552E+02    0.76422E-04   -0.19489E-03   396   0.160E-01    0.160E-01
DAV:   4    -0.236340972309E+02    0.35032E-03   -0.97702E-04   392   0.946E-02    0.796E-02
DAV:   5    -0.236341591511E+02   -0.61920E-04   -0.44501E-04   360   0.665E-02
  21 F= -.23634159E+02 E0= -.23634159E+02  d E =-.838874E-02  mag=     1.0000
 curvature: -32.07 expect dE=-0.122E-01 dE for cont linesearch -0.109E-04
 trial: gam= 0.78464 g(F)=  0.381E-03 g(S)=  0.000E+00 ort = 0.182E-04 (trialstep = 0.175E+02)
 search vector abs. value=  0.101E-02
 bond charge predicted
       N       E                     dE             d eps       ncg     rms          rms(c)
DAV:   1    -0.236292564460E+02    0.48408E-02   -0.20701E+01   368   0.126E+01    0.155E-01
DAV:   2    -0.236393662783E+02   -0.10110E-01   -0.10099E-01   396   0.122E+00    0.123E-01
DAV:   3    -0.236393496709E+02    0.16607E-04   -0.14873E-03   400   0.142E-01    0.946E-02
DAV:   4    -0.236392045417E+02    0.14513E-03   -0.32073E-04   344   0.550E-02    0.482E-02
DAV:   5    -0.236392327265E+02   -0.28185E-04   -0.31867E-04   360   0.537E-02
  22 F= -.23639233E+02 E0= -.23639233E+02  d E =-.507358E-02  mag=     1.0000
 trial-energy change:   -0.005074  1 .order   -0.005447   -0.006907   -0.003987
 step:  41.3430(harm= 41.3430)  dis= 0.07689  next Energy=   -23.642328 (dE=-0.817E-02)
 bond charge predicted
       N       E                     dE             d eps       ncg     rms          rms(c)
DAV:   1    -0.236221544739E+02    0.17050E-01   -0.38673E+01   368   0.172E+01    0.220E-01
DAV:   2    -0.236411882030E+02   -0.19034E-01   -0.18895E-01   400   0.167E+00    0.172E-01
DAV:   3    -0.236411054366E+02    0.82766E-04   -0.27999E-03   396   0.195E-01    0.132E-01
DAV:   4    -0.236407875595E+02    0.31788E-03   -0.66618E-04   388   0.778E-02    0.645E-02
DAV:   5    -0.236408044235E+02   -0.16864E-04   -0.50707E-04   368   0.663E-02
  23 F= -.23640804E+02 E0= -.23640804E+02  d E =-.664527E-02  mag=     1.0000
 curvature: -52.65 expect dE=-0.262E-01 dE for cont linesearch -0.251E-04
 trial: gam= 1.39555 g(F)=  0.498E-03 g(S)=  0.000E+00 ort =-0.219E-04 (trialstep = 0.934E+01)
 search vector abs. value=  0.240E-02
 bond charge predicted
       N       E                     dE             d eps       ncg     rms          rms(c)
DAV:   1    -0.236374781558E+02    0.33094E-02   -0.14077E+01   368   0.103E+01    0.112E-01
DAV:   2    -0.236443351164E+02   -0.68570E-02   -0.68225E-02   392   0.999E-01    0.105E-01
DAV:   3    -0.236443238914E+02    0.11225E-04   -0.98289E-04   400   0.114E-01
  24 F= -.23644324E+02 E0= -.23644324E+02  d E =-.351947E-02  mag=     1.0000
 trial-energy change:   -0.003519  1 .order   -0.003803   -0.004366   -0.003240
 step:  36.2424(harm= 36.2424)  dis= 0.10172  next Energy=   -23.649270 (dE=-0.847E-02)
 bond charge predicted
       N       E                     dE             d eps       ncg     rms          rms(c)
DAV:   1    -0.235917589054E+02    0.52576E-01   -0.11845E+02   368   0.301E+01    0.393E-01
DAV:   2    -0.236494267386E+02   -0.57668E-01   -0.57684E-01   392   0.294E+00    0.347E-01
DAV:   3    -0.236488745430E+02    0.55220E-03   -0.84936E-03   400   0.338E-01    0.263E-01
DAV:   4    -0.236475339737E+02    0.13406E-02   -0.22428E-03   376   0.140E-01    0.144E-01
DAV:   5    -0.236474395099E+02    0.94464E-04   -0.18563E-03   400   0.125E-01    0.430E-02
DAV:   6    -0.236475532911E+02   -0.11378E-03   -0.33191E-05   256   0.199E-02    0.272E-02
DAV:   7    -0.236476757708E+02   -0.12248E-03   -0.22795E-05   256   0.130E-02    0.102E-02
DAV:   8    -0.236477562325E+02   -0.80462E-04   -0.78507E-06   264   0.807E-03
  25 F= -.23647756E+02 E0= -.23647756E+02  d E =-.695181E-02  mag=     1.0000
 curvature: -92.96 expect dE=-0.588E-01 dE for cont linesearch -0.187E-03
 trial: gam= 1.10842 g(F)=  0.633E-03 g(S)=  0.000E+00 ort =-0.695E-04 (trialstep = 0.103E+02)
 search vector abs. value=  0.342E-02
 bond charge predicted
       N       E                     dE             d eps       ncg     rms          rms(c)
DAV:   1    -0.236404545866E+02    0.72212E-02   -0.24531E+01   368   0.137E+01    0.151E-01
DAV:   2    -0.236522057684E+02   -0.11751E-01   -0.11718E-01   400   0.132E+00    0.157E-01
DAV:   3    -0.236521512088E+02    0.54560E-04   -0.16968E-03   396   0.151E-01    0.125E-01
DAV:   4    -0.236518586627E+02    0.29255E-03   -0.41228E-04   348   0.619E-02    0.755E-02
DAV:   5    -0.236518373619E+02    0.21301E-04   -0.60406E-04   400   0.718E-02
  26 F= -.23651837E+02 E0= -.23651837E+02  d E =-.408113E-02  mag=     1.0000
 trial-energy change:   -0.004081  1 .order   -0.004455   -0.005729   -0.003182
 step:  23.1899(harm= 23.1899)  dis= 0.08148  next Energy=   -23.654200 (dE=-0.644E-02)
 bond charge predicted
       N       E                     dE             d eps       ncg     rms          rms(c)
DAV:   1    -0.236348194607E+02    0.17039E-01   -0.38364E+01   368   0.171E+01    0.200E-01
DAV:   2    -0.236533285997E+02   -0.18509E-01   -0.18490E-01   388   0.166E+00    0.195E-01
DAV:   3    -0.236532521760E+02    0.76424E-04   -0.26851E-03   400   0.190E-01    0.151E-01
DAV:   4    -0.236528478857E+02    0.40429E-03   -0.65972E-04   376   0.778E-02    0.882E-02
DAV:   5    -0.236528402028E+02    0.76829E-05   -0.70457E-04   380   0.765E-02
  27 F= -.23652840E+02 E0= -.23652840E+02  d E =-.508397E-02  mag=     1.0000
 curvature: -71.43 expect dE=-0.366E-01 dE for cont linesearch -0.679E-06
 trial: gam= 0.57399 g(F)=  0.512E-03 g(S)=  0.000E+00 ort = 0.570E-05 (trialstep = 0.129E+02)
 search vector abs. value=  0.165E-02
 bond charge predicted
       N       E                     dE             d eps       ncg     rms          rms(c)
DAV:   1    -0.236488571192E+02    0.39908E-02   -0.18387E+01   368   0.119E+01    0.146E-01
DAV:   2    -0.236577995603E+02   -0.89424E-02   -0.89354E-02   380   0.116E+00    0.130E-01
DAV:   3    -0.236577819822E+02    0.17578E-04   -0.13342E-03   400   0.137E-01    0.971E-02
DAV:   4    -0.236576394646E+02    0.14252E-03   -0.29294E-04   336   0.546E-02    0.551E-02
DAV:   5    -0.236576642201E+02   -0.24755E-04   -0.33922E-04   352   0.560E-02
  28 F= -.23657664E+02 E0= -.23657664E+02  d E =-.482402E-02  mag=     1.0000
 trial-energy change:   -0.004824  1 .order   -0.005228   -0.006643   -0.003814
 step:  30.2537(harm= 30.2537)  dis= 0.06752  next Energy=   -23.660639 (dE=-0.780E-02)
 bond charge predicted
       N       E                     dE             d eps       ncg     rms          rms(c)
DAV:   1    -0.236431154046E+02    0.14524E-01   -0.33467E+01   368   0.161E+01    0.203E-01
DAV:   2    -0.236594437913E+02   -0.16328E-01   -0.16259E-01   388   0.157E+00    0.178E-01
DAV:   3    -0.236593796546E+02    0.64137E-04   -0.24365E-03   392   0.185E-01    0.133E-01
DAV:   4    -0.236590646017E+02    0.31505E-03   -0.57682E-04   376   0.750E-02    0.733E-02
DAV:   5    -0.236590608785E+02    0.37232E-05   -0.56217E-04   400   0.699E-02
  29 F= -.23659061E+02 E0= -.23659061E+02  d E =-.622068E-02  mag=     1.0000
 curvature: -48.32 expect dE=-0.182E-01 dE for cont linesearch -0.734E-04
 trial: gam= 0.75228 g(F)=  0.376E-03 g(S)=  0.000E+00 ort =-0.500E-04 (trialstep = 0.164E+02)
 search vector abs. value=  0.123E-02
 bond charge predicted
       N       E                     dE             d eps       ncg     rms          rms(c)
DAV:   1    -0.236517985556E+02    0.72660E-02   -0.22149E+01   368   0.132E+01    0.169E-01
DAV:   2    -0.236623299470E+02   -0.10531E-01   -0.10576E-01   388   0.127E+00    0.153E-01
DAV:   3    -0.236622879848E+02    0.41962E-04   -0.16216E-03   400   0.152E-01    0.112E-01
DAV:   4    -0.236620769606E+02    0.21102E-03   -0.40690E-04   348   0.650E-02    0.631E-02
DAV:   5    -0.236620898306E+02   -0.12870E-04   -0.36479E-04   364   0.587E-02
  30 F= -.23662090E+02 E0= -.23662090E+02  d E =-.302895E-02  mag=     1.0000
 trial-energy change:   -0.003029  1 .order   -0.003639   -0.005540   -0.001738
 step:  23.8362(harm= 23.8362)  dis= 0.03973  next Energy=   -23.663097 (dE=-0.404E-02)
 bond charge predicted
       N       E                     dE             d eps       ncg     rms          rms(c)
DAV:   1    -0.236600500595E+02    0.20269E-02   -0.46182E+00   368   0.602E+00    0.807E-02
DAV:   2    -0.236622532754E+02   -0.22032E-02   -0.22184E-02   388   0.581E-01    0.689E-02
DAV:   3    -0.236622506584E+02    0.26169E-05   -0.33003E-04   336   0.696E-02
  31 F= -.23662251E+02 E0= -.23662251E+02  d E =-.318978E-02  mag=     1.0000
 curvature: -43.39 expect dE=-0.951E-02 dE for cont linesearch -0.239E-03
 trial: gam= 0.44590 g(F)=  0.219E-03 g(S)=  0.000E+00 ort =-0.825E-04 (trialstep = 0.179E+02)
 search vector abs. value=  0.391E-03
 bond charge predicted
       N       E                     dE             d eps       ncg     rms          rms(c)
DAV:   1    -0.236611112213E+02    0.11421E-02   -0.83558E+00   368   0.816E+00    0.112E-01
DAV:   2    -0.236649010817E+02   -0.37899E-02   -0.39010E-02   396   0.780E-01    0.104E-01
DAV:   3    -0.236648659034E+02    0.35178E-04   -0.60914E-04   408   0.952E-02
  32 F= -.23664866E+02 E0= -.23664866E+02  d E =-.261524E-02  mag=     1.0000
 trial-energy change:   -0.002615  1 .order   -0.002544   -0.003258   -0.001831
 step:  40.7592(harm= 40.7592)  dis= 0.02730  next Energy=   -23.665969 (dE=-0.372E-02)
 bond charge predicted
       N       E                     dE             d eps       ncg     rms          rms(c)
DAV:   1    -0.236594918774E+02    0.54092E-02   -0.13761E+01   368   0.105E+01    0.157E-01
DAV:   2    -0.236656610747E+02   -0.61692E-02   -0.63901E-02   400   0.998E-01    0.144E-01
DAV:   3    -0.236655753275E+02    0.85747E-04   -0.99400E-04   408   0.120E-01
  33 F= -.23665575E+02 E0= -.23665575E+02  d E =-.332467E-02  mag=     1.0000
 curvature: -43.65 expect dE=-0.175E-01 dE for cont linesearch -0.256E-04
 trial: gam= 1.89179 g(F)=  0.401E-03 g(S)=  0.000E+00 ort =-0.151E-04 (trialstep = 0.503E+01)
 search vector abs. value=  0.174E-02
 bond charge predicted
       N       E                     dE             d eps       ncg     rms          rms(c)
DAV:   1    -0.236657214210E+02   -0.60346E-04   -0.29672E+00   396   0.486E+00    0.725E-02
DAV:   2    -0.236670370215E+02   -0.13156E-02   -0.13551E-02   400   0.459E-01    0.692E-02
DAV:   3    -0.236670215687E+02    0.15453E-04   -0.17730E-04   240   0.521E-02
  34 F= -.23667022E+02 E0= -.23667022E+02  d E =-.144624E-02  mag=     1.0000
 trial-energy change:   -0.001446  1 .order   -0.001314   -0.001873   -0.000756
 step:   8.4357(harm=  8.4357)  dis= 0.01306  next Energy=   -23.667145 (dE=-0.157E-02)
 bond charge predicted
       N       E                     dE             d eps       ncg     rms          rms(c)
DAV:   1    -0.236673891641E+02   -0.35214E-03   -0.13619E+00   392   0.329E+00    0.443E-02
DAV:   2    -0.236680198707E+02   -0.63071E-03   -0.62583E-03   400   0.312E-01    0.435E-02
DAV:   3    -0.236680257705E+02   -0.58997E-05   -0.81547E-05   236   0.363E-02
  35 F= -.23668026E+02 E0= -.23668026E+02  d E =-.245044E-02  mag=     1.0000
 curvature: -19.74 expect dE=-0.494E-02 dE for cont linesearch -0.319E-03
 trial: gam=-0.12158 g(F)=  0.250E-03 g(S)=  0.000E+00 ort = 0.168E-03 (trialstep = 0.571E+01)
 search vector abs. value=  0.235E-03
 bond charge predicted
       N       E                     dE             d eps       ncg     rms          rms(c)
DAV:   1    -0.236688830375E+02   -0.86317E-03   -0.51788E-01   392   0.204E+00    0.476E-02
DAV:   2    -0.236691508100E+02   -0.26777E-03   -0.25300E-03   400   0.196E-01    0.344E-02
DAV:   3    -0.236691751822E+02   -0.24372E-04   -0.40855E-05   244   0.257E-02
  36 F= -.23669175E+02 E0= -.23669175E+02  d E =-.114941E-02  mag=     1.0000
 trial-energy change:   -0.001149  1 .order   -0.000980   -0.001313   -0.000647
 step:  11.2697(harm= 11.2697)  dis= 0.00475  next Energy=   -23.669320 (dE=-0.129E-02)
 bond charge predicted
       N       E                     dE             d eps       ncg     rms          rms(c)
DAV:   1    -0.236695694061E+02   -0.41860E-03   -0.49263E-01   396   0.199E+00    0.472E-02
DAV:   2    -0.236698068754E+02   -0.23747E-03   -0.23915E-03   400   0.190E-01    0.343E-02
DAV:   3    -0.236698180642E+02   -0.11189E-04   -0.37119E-05   248   0.239E-02
  37 F= -.23669818E+02 E0= -.23669818E+02  d E =-.179229E-02  mag=     1.0000
 curvature:  -5.77 expect dE=-0.423E-03 dE for cont linesearch -0.248E-04
 trial: gam= 0.05039 g(F)=  0.734E-04 g(S)=  0.000E+00 ort = 0.318E-04 (trialstep = 0.682E+01)
 search vector abs. value=  0.772E-04
 reached required accuracy - stopping structural energy minimisation
Application 90924266 resources: utime ~10624s, stime ~151s, Rss ~65616, inblocks ~81991, outblocks ~152392
