unknown system                          
           1
    19.336896    0.000000    0.000000
     0.000000   19.336896    0.000000
     0.000000    0.000000   19.336896
   Ag
  13
Direct configuration=     1
   0.58792318  0.59364459  0.53932690
   0.61980342  0.45797080  0.58632871
   0.49768352  0.64505985  0.63953647
   0.53156142  0.40749401  0.49333180
   0.47224478  0.50654524  0.57537497
   0.38599891  0.40205422  0.51854340
   0.56038095  0.53318591  0.68335148
   0.44911295  0.64531905  0.51108075
   0.36969484  0.53587141  0.47323301
   0.57217064  0.44290484  0.34698539
   0.43931215  0.43385705  0.38844692
   0.64758364  0.49540012  0.45299587
   0.51176448  0.54312840  0.43511747
Direct configuration=     2
   0.58808980  0.59373970  0.53965029
   0.61991412  0.45798965  0.58647388
   0.49758751  0.64524932  0.63958752
   0.53159539  0.40722645  0.49311331
   0.47216060  0.50665623  0.57554473
   0.38609125  0.40193961  0.51857882
   0.56059833  0.53315806  0.68360615
   0.44909086  0.64536015  0.51108308
   0.36978539  0.53582435  0.47299129
   0.57210122  0.44279646  0.34696050
   0.43898666  0.43386907  0.38827964
   0.64759236  0.49543346  0.45303547
   0.51164139  0.54319300  0.43474847
Direct configuration=     3
   0.58858967  0.59402505  0.54062044
   0.62024621  0.45804618  0.58690937
   0.49729947  0.64581771  0.63974066
   0.53169731  0.40642378  0.49245784
   0.47190807  0.50698918  0.57605402
   0.38636826  0.40159576  0.51868507
   0.56125046  0.53307452  0.68437016
   0.44902458  0.64548344  0.51109009
   0.37005705  0.53568318  0.47226615
   0.57189297  0.44247130  0.34688582
   0.43801020  0.43390511  0.38777779
   0.64761850  0.49553349  0.45315426
   0.51127214  0.54338681  0.43364148
Direct configuration=     4
   0.58958941  0.59459574  0.54256075
   0.62091040  0.45815924  0.58778037
   0.49672339  0.64695449  0.64004695
   0.53190115  0.40481843  0.49114691
   0.47140300  0.50765507  0.57707258
   0.38692227  0.40090807  0.51889757
   0.56255473  0.53290744  0.68589818
   0.44889201  0.64573002  0.51110411
   0.37060038  0.53540082  0.47081586
   0.57147646  0.44182099  0.34673646
   0.43605727  0.43397720  0.38677410
   0.64767079  0.49573355  0.45339183
   0.51053363  0.54377442  0.43142749
Direct configuration=     5
   0.59158888  0.59573714  0.54644137
   0.62223878  0.45838536  0.58952236
   0.49557124  0.64922806  0.64065952
   0.53230882  0.40160775  0.48852505
   0.47039287  0.50898686  0.57910972
   0.38803029  0.39953270  0.51932257
   0.56516327  0.53257327  0.68895421
   0.44862689  0.64622317  0.51113214
   0.37168702  0.53483611  0.46791527
   0.57064345  0.44052037  0.34643774
   0.43215141  0.43412139  0.38476671
   0.64777537  0.49613367  0.45386697
   0.50905660  0.54454964  0.42699952
Direct configuration=     6
   0.59142386  0.59528240  0.54727342
   0.62198719  0.45843189  0.58926211
   0.49570749  0.64910336  0.64116766
   0.53240937  0.40189047  0.48793333
   0.47084230  0.50935082  0.57921486
   0.38894372  0.39941430  0.51931696
   0.56546757  0.53337443  0.68946018
   0.44891706  0.64567292  0.51105087
   0.37222357  0.53466596  0.46705919
   0.56993266  0.43995550  0.34677286
   0.43133027  0.43401459  0.38412215
   0.64682425  0.49640348  0.45442518
   0.50922559  0.54487536  0.42659440
Direct configuration=     7
   0.59092878  0.59391818  0.54976955
   0.62123243  0.45857149  0.58848136
   0.49611623  0.64872925  0.64269209
   0.53271101  0.40273865  0.48615816
   0.47219059  0.51044269  0.57953029
   0.39168402  0.39905911  0.51930013
   0.56638048  0.53577790  0.69097808
   0.44978758  0.64402214  0.51080707
   0.37383324  0.53415551  0.46449092
   0.56780028  0.43826089  0.34777821
   0.42886683  0.43369421  0.38218846
   0.64397088  0.49721292  0.45609982
   0.50973255  0.54585253  0.42537903
Direct configuration=     8
   0.58993862  0.59118975  0.55476182
   0.61972290  0.45885070  0.58691985
   0.49693373  0.64798104  0.64574095
   0.53331428  0.40443502  0.48260782
   0.47488717  0.51262644  0.58016114
   0.39716463  0.39834872  0.51926647
   0.56820630  0.54058484  0.69401387
   0.45152861  0.64072060  0.51031946
   0.37705257  0.53313460  0.45935438
   0.56353551  0.43487167  0.34978891
   0.42393996  0.43305344  0.37832107
   0.63826414  0.49883180  0.45944911
   0.51074648  0.54780685  0.42294828
Direct configuration=     9
   0.59062711  0.59308693  0.55129052
   0.62077253  0.45865656  0.58800562
   0.49636530  0.64850130  0.64362097
   0.53289480  0.40325547  0.48507650
   0.47301214  0.51110800  0.57972249
   0.39335377  0.39884268  0.51928988
   0.56693674  0.53724240  0.69190297
   0.45031801  0.64301628  0.51065851
   0.37481405  0.53384447  0.46292600
   0.56650096  0.43722832  0.34839080
   0.42736579  0.43349899  0.38101020
   0.64223224  0.49770614  0.45712023
   0.51004146  0.54644794  0.42463846
Direct configuration=    10
   0.59027065  0.59333136  0.55235658
   0.61935813  0.45812093  0.58982275
   0.49601604  0.64861991  0.64410462
   0.53236107  0.40422862  0.48454793
   0.47375377  0.51096050  0.57956644
   0.39530966  0.39920776  0.51909469
   0.56826973  0.53799579  0.69213160
   0.45128253  0.64228467  0.51152424
   0.37501086  0.53354719  0.46191570
   0.56554925  0.43612687  0.34861372
   0.42658298  0.43307589  0.37975173
   0.64108000  0.49851504  0.45639639
   0.51039023  0.54642099  0.42382676
Direct configuration=    11
   0.59000181  0.59351570  0.55316059
   0.61829141  0.45771696  0.59119322
   0.49575263  0.64870936  0.64446938
   0.53195854  0.40496256  0.48414928
   0.47431309  0.51084925  0.57944875
   0.39678477  0.39948310  0.51894748
   0.56927506  0.53856398  0.69230402
   0.45200996  0.64173289  0.51217717
   0.37515929  0.53332297  0.46115375
   0.56483147  0.43529616  0.34878185
   0.42599259  0.43275678  0.37880260
   0.64021099  0.49912510  0.45585048
   0.51065327  0.54640066  0.42321458
Direct configuration=    12
   0.58946413  0.59388439  0.55476861
   0.61615795  0.45690902  0.59393414
   0.49522582  0.64888826  0.64519891
   0.53115348  0.40643044  0.48335200
   0.47543175  0.51062676  0.57921338
   0.39973500  0.40003379  0.51865306
   0.57128572  0.53970038  0.69264887
   0.45346483  0.64062934  0.51348302
   0.37545615  0.53287455  0.45962983
   0.56339593  0.43363475  0.34911810
   0.42481182  0.43211858  0.37690434
   0.63847298  0.50034523  0.45475865
   0.51117935  0.54636000  0.42199023
Direct configuration=    13
   0.58987822  0.59360044  0.55353018
   0.61780104  0.45753126  0.59182320
   0.49563155  0.64875048  0.64463706
   0.53177350  0.40529995  0.48396603
   0.47457021  0.51079811  0.57939465
   0.39746287  0.39960968  0.51887981
   0.56973720  0.53882518  0.69238329
   0.45234436  0.64147924  0.51247731
   0.37522752  0.53321991  0.46080348
   0.56450152  0.43491429  0.34885913
   0.42572120  0.43261009  0.37836630
   0.63981152  0.49940554  0.45559953
   0.51077419  0.54639131  0.42293317
Direct configuration=    14
   0.59049778  0.59419721  0.55347482
   0.61647096  0.45655600  0.59231283
   0.49489317  0.64923927  0.64561591
   0.53202588  0.40618300  0.48421357
   0.47486210  0.51000724  0.57941895
   0.39790327  0.39993565  0.51884507
   0.57098845  0.53960478  0.69300540
   0.45286840  0.64077725  0.51284695
   0.37522611  0.53353918  0.46054325
   0.56447778  0.43387602  0.34782662
   0.42539389  0.43213496  0.37736555
   0.63973150  0.49998311  0.45595517
   0.50989563  0.54640182  0.42222906
Direct configuration=    15
   0.59157993  0.59523956  0.55337813
   0.61414775  0.45485253  0.59316804
   0.49360345  0.65009304  0.64732564
   0.53246669  0.40772540  0.48464592
   0.47537194  0.50862584  0.57946139
   0.39867250  0.40050501  0.51878439
   0.57317397  0.54096650  0.69409204
   0.45378373  0.63955110  0.51349259
   0.37522364  0.53409684  0.46008872
   0.56443632  0.43206249  0.34602314
   0.42482218  0.43130507  0.37561756
   0.63959174  0.50099193  0.45657638
   0.50836107  0.54642018  0.42099921
Direct configuration=    16
   0.59100890  0.59490626  0.55440076
   0.61385828  0.45553351  0.59321353
   0.49407703  0.64886862  0.64701604
   0.53282434  0.40757780  0.48299674
   0.47610872  0.50957348  0.58040707
   0.39722001  0.40038316  0.51827300
   0.57354563  0.54193222  0.69304670
   0.45397270  0.63968457  0.51417254
   0.37450871  0.53350175  0.45994390
   0.56453126  0.43254917  0.34703454
   0.42528279  0.43181434  0.37657207
   0.63904043  0.50099824  0.45670537
   0.50925609  0.54511236  0.41987088
Direct configuration=    17
   0.59112056  0.59497143  0.55420079
   0.61391488  0.45540035  0.59320464
   0.49398443  0.64910804  0.64707658
   0.53275440  0.40760666  0.48331921
   0.47596465  0.50938818  0.58022216
   0.39750403  0.40040699  0.51837299
   0.57347296  0.54174338  0.69325111
   0.45393575  0.63965847  0.51403958
   0.37464851  0.53361811  0.45997222
   0.56451269  0.43245401  0.34683677
   0.42519272  0.43171476  0.37638543
   0.63914823  0.50099701  0.45668015
   0.50908108  0.54536809  0.42009151
Direct configuration=    18
   0.59124302  0.59493757  0.55455182
   0.61371043  0.45543029  0.59280039
   0.49396458  0.64867206  0.64729266
   0.53213971  0.40719096  0.48300205
   0.47592340  0.50951891  0.58065311
   0.39697079  0.40060615  0.51794222
   0.57422495  0.54252203  0.69313559
   0.45394608  0.63905715  0.51364138
   0.37474017  0.53362015  0.46010646
   0.56508600  0.43259600  0.34677267
   0.42535110  0.43183949  0.37695146
   0.63926504  0.50121288  0.45710946
   0.50866963  0.54523183  0.41969387
Direct configuration=    19
   0.59132612  0.59491460  0.55479003
   0.61357169  0.45545061  0.59252607
   0.49395111  0.64837620  0.64743930
   0.53172257  0.40690886  0.48278682
   0.47589540  0.50960762  0.58094556
   0.39660893  0.40074130  0.51764990
   0.57473526  0.54305043  0.69305720
   0.45395308  0.63864910  0.51337116
   0.37480237  0.53362154  0.46019755
   0.56547504  0.43269235  0.34672918
   0.42545858  0.43192414  0.37733557
   0.63934430  0.50135937  0.45740080
   0.50839043  0.54513936  0.41942402
Direct configuration=    20
   0.59163345  0.59512544  0.55493488
   0.61318375  0.45525700  0.59227275
   0.49342581  0.64827008  0.64738150
   0.53132029  0.40676594  0.48276886
   0.47565045  0.50933501  0.58126005
   0.39596603  0.40094620  0.51754491
   0.57607381  0.54349898  0.69315106
   0.45423741  0.63831331  0.51331733
   0.37444771  0.53373061  0.46042794
   0.56609182  0.43287434  0.34666988
   0.42568820  0.43169366  0.37728329
   0.63911019  0.50154709  0.45768769
   0.50840598  0.54507782  0.41895300
Direct configuration=    21
   0.59208937  0.59543822  0.55514977
   0.61260823  0.45496979  0.59189695
   0.49264652  0.64811264  0.64729576
   0.53072349  0.40655390  0.48274223
   0.47528708  0.50893060  0.58172660
   0.39501230  0.40125017  0.51738915
   0.57805954  0.54416440  0.69329031
   0.45465922  0.63781518  0.51323748
   0.37392158  0.53389241  0.46076972
   0.56700680  0.43314431  0.34658191
   0.42602883  0.43135175  0.37720573
   0.63876288  0.50182558  0.45811330
   0.50842906  0.54498653  0.41825423
Direct configuration=    22
   0.59209584  0.59570169  0.55561545
   0.61189820  0.45473958  0.59222523
   0.49219362  0.64738605  0.64734560
   0.53035683  0.40685762  0.48269823
   0.47530105  0.50866143  0.58201145
   0.39423354  0.40146137  0.51740851
   0.57974067  0.54494883  0.69284226
   0.45525634  0.63754394  0.51321380
   0.37402776  0.53373134  0.46051650
   0.56748983  0.43324880  0.34684293
   0.42632948  0.43123068  0.37696266
   0.63828479  0.50192935  0.45811881
   0.50802693  0.54499481  0.41785173
Direct configuration=    23
   0.59210467  0.59606140  0.55625122
   0.61092883  0.45442528  0.59267341
   0.49157530  0.64639405  0.64741364
   0.52985623  0.40727228  0.48263816
   0.47532012  0.50829395  0.58240035
   0.39317033  0.40174971  0.51743494
   0.58203586  0.54601978  0.69223055
   0.45607158  0.63717362  0.51318147
   0.37417272  0.53351143  0.46017078
   0.56814930  0.43339144  0.34719928
   0.42673996  0.43106540  0.37663080
   0.63763206  0.50207104  0.45812633
   0.50747793  0.54500612  0.41730220
Direct configuration=    24
   0.59222247  0.59607892  0.55628287
   0.61056808  0.45403997  0.59280668
   0.49117095  0.64562180  0.64785730
   0.52933098  0.40762982  0.48276944
   0.47527810  0.50815990  0.58250731
   0.39283294  0.40186969  0.51739175
   0.58339217  0.54689995  0.69216031
   0.45635124  0.63702819  0.51296282
   0.37434800  0.53341800  0.45983544
   0.56836139  0.43331218  0.34736730
   0.42682679  0.43089738  0.37639945
   0.63725910  0.50231124  0.45838310
   0.50729267  0.54516844  0.41692937
Direct configuration=    25
   0.59256157  0.59612937  0.55637397
   0.60952965  0.45293084  0.59319030
   0.49000698  0.64339879  0.64913441
   0.52781901  0.40865904  0.48314735
   0.47515713  0.50777402  0.58281519
   0.39186173  0.40221508  0.51726743
   0.58729645  0.54943360  0.69195811
   0.45715629  0.63660954  0.51233343
   0.37485256  0.53314905  0.45887013
   0.56897190  0.43308403  0.34785095
   0.42707677  0.43041372  0.37573349
   0.63618551  0.50300270  0.45912225
   0.50675937  0.54563571  0.41585614
Direct configuration=    26
   0.59256427  0.59611114  0.55628809
   0.60932641  0.45266713  0.59360213
   0.48933673  0.64217081  0.64949691
   0.52720268  0.40916132  0.48326961
   0.47499487  0.50794849  0.58285878
   0.39150006  0.40224679  0.51715200
   0.58916948  0.55031937  0.69197310
   0.45729668  0.63660418  0.51250845
   0.37476103  0.53316215  0.45840285
   0.56900752  0.43279197  0.34812503
   0.42697670  0.43012397  0.37546936
   0.63594265  0.50327039  0.45952490
   0.50715582  0.54585777  0.41498193
Direct configuration=    27
   0.59256764  0.59608836  0.55618077
   0.60907244  0.45233759  0.59411676
   0.48849919  0.64063635  0.64994988
   0.52643253  0.40978897  0.48342239
   0.47479211  0.50816651  0.58291325
   0.39104811  0.40228641  0.51700776
   0.59151001  0.55142624  0.69199184
   0.45747211  0.63659748  0.51272716
   0.37464666  0.53317851  0.45781894
   0.56905203  0.43242703  0.34846752
   0.42685166  0.42976190  0.37513930
   0.63563917  0.50360489  0.46002806
   0.50765123  0.54613527  0.41388953
Direct configuration=    28
   0.59223476  0.59628766  0.55630493
   0.60898950  0.45264868  0.59463990
   0.48811401  0.63935338  0.65015847
   0.52637524  0.41031409  0.48353361
   0.47450397  0.50842535  0.58276777
   0.39064954  0.40232147  0.51682760
   0.59299706  0.55174883  0.69192585
   0.45725677  0.63634844  0.51280246
   0.37495391  0.53344301  0.45730836
   0.56891897  0.43188387  0.34869853
   0.42661827  0.42972229  0.37521465
   0.63588708  0.50339109  0.46022155
   0.50773582  0.54654730  0.41324946
Direct configuration=    29
   0.59178603  0.59655634  0.55647230
   0.60887768  0.45306804  0.59534510
   0.48759478  0.63762391  0.65043965
   0.52629803  0.41102196  0.48368353
   0.47411554  0.50877429  0.58257167
   0.39011226  0.40236874  0.51658474
   0.59500163  0.55218371  0.69183691
   0.45696648  0.63601272  0.51290398
   0.37536808  0.53379958  0.45662009
   0.56873960  0.43115168  0.34900995
   0.42630366  0.42966889  0.37531623
   0.63622128  0.50310290  0.46048239
   0.50784985  0.54710274  0.41238662
Direct configuration=    30
   0.59145743  0.59672141  0.55620039
   0.60876382  0.45352648  0.59532034
   0.48747513  0.63637793  0.65104391
   0.52635437  0.41170106  0.48413929
   0.47351667  0.50825481  0.58213914
   0.38984724  0.40266520  0.51620726
   0.59641175  0.55264548  0.69229084
   0.45651291  0.63600566  0.51270994
   0.37558242  0.53414303  0.45612942
   0.56844848  0.43047317  0.34921764
   0.42626887  0.42971890  0.37558449
   0.63630549  0.50275290  0.46068086
   0.50829032  0.54744948  0.41198961
Direct configuration=    31
   0.59130723  0.59679686  0.55607610
   0.60871177  0.45373604  0.59530902
   0.48742044  0.63580837  0.65132013
   0.52638012  0.41201148  0.48434762
   0.47324292  0.50801734  0.58194143
   0.38972609  0.40280071  0.51603471
   0.59705633  0.55285657  0.69249834
   0.45630557  0.63600243  0.51262124
   0.37568040  0.53430002  0.45590513
   0.56831540  0.43016301  0.34931258
   0.42625297  0.42974176  0.37570712
   0.63634398  0.50259291  0.46077158
   0.50849166  0.54760798  0.41180814
Direct configuration=    32
   0.59090840  0.59659181  0.55585627
   0.60873304  0.45422662  0.59528354
   0.48766058  0.63523940  0.65138145
   0.52620568  0.41186644  0.48451712
   0.47272493  0.50758133  0.58175174
   0.38956541  0.40300810  0.51568553
   0.59767465  0.55332084  0.69272225
   0.45631307  0.63626831  0.51298010
   0.37541919  0.53451909  0.45563556
   0.56816747  0.42987708  0.34937463
   0.42655894  0.42976350  0.37577584
   0.63632651  0.50257730  0.46061636
   0.50897701  0.54759567  0.41207276
Direct configuration=    33
   0.59039674  0.59632874  0.55557426
   0.60876032  0.45485598  0.59525086
   0.48796866  0.63450946  0.65146011
   0.52598189  0.41168038  0.48473458
   0.47206040  0.50702195  0.58150838
   0.38935927  0.40327415  0.51523756
   0.59846790  0.55391645  0.69300950
   0.45632269  0.63660940  0.51344049
   0.37508409  0.53480014  0.45528971
   0.56797768  0.42951027  0.34945423
   0.42695147  0.42979140  0.37586400
   0.63630411  0.50255727  0.46041722
   0.50959965  0.54757988  0.41241224
Direct configuration=    34
   0.59017466  0.59615562  0.55544320
   0.60875511  0.45515513  0.59526928
   0.48810432  0.63423469  0.65152416
   0.52601046  0.41148419  0.48482153
   0.47173347  0.50687510  0.58143014
   0.38913620  0.40332276  0.51501828
   0.59887096  0.55420772  0.69307695
   0.45626561  0.63663429  0.51356946
   0.37508684  0.53503961  0.45508396
   0.56798767  0.42935105  0.34946419
   0.42708345  0.42986384  0.37587346
   0.63638301  0.50250027  0.46030828
   0.50964314  0.54761120  0.41277026
Direct configuration=    35
   0.59002449  0.59603856  0.55535459
   0.60875158  0.45535741  0.59528173
   0.48819605  0.63404889  0.65156746
   0.52602977  0.41135153  0.48488033
   0.47151240  0.50677580  0.58137724
   0.38898535  0.40335563  0.51487001
   0.59914350  0.55440468  0.69312255
   0.45622702  0.63665112  0.51365667
   0.37508870  0.53520155  0.45494484
   0.56799443  0.42924340  0.34947092
   0.42717269  0.42991282  0.37587985
   0.63643637  0.50246172  0.46023461
   0.50967255  0.54763239  0.41301234
Direct configuration=    36
   0.59009025  0.59602793  0.55535857
   0.60872254  0.45527962  0.59530947
   0.48814349  0.63415126  0.65160289
   0.52615251  0.41129785  0.48487108
   0.47153355  0.50690030  0.58140698
   0.38891073  0.40328676  0.51486626
   0.59916050  0.55439826  0.69304873
   0.45614337  0.63655003  0.51357127
   0.37519573  0.53525282  0.45492584
   0.56809177  0.42929937  0.34947182
   0.42709509  0.42997037  0.37585022
   0.63650960  0.50239580  0.46023942
   0.50948576  0.54762513  0.41313059
Direct configuration=    37
   0.59015420  0.59601759  0.55536244
   0.60869431  0.45520397  0.59533645
   0.48809237  0.63425082  0.65163735
   0.52627189  0.41124564  0.48486208
   0.47155411  0.50702139  0.58143591
   0.38883815  0.40321978  0.51486261
   0.59917702  0.55439201  0.69297694
   0.45606203  0.63645171  0.51348822
   0.37529983  0.53530268  0.45490736
   0.56818643  0.42935381  0.34947270
   0.42701962  0.43002633  0.37582139
   0.63658082  0.50233169  0.46024409
   0.50930410  0.54761807  0.41324560
