<?xml version="1.0" encoding="ISO-8859-1"?>
<modeling>
 <generator>
  <i name="program" type="string">vasp </i>
  <i name="version" type="string">5.3.5  </i>
  <i name="subversion" type="string">31Mar14 (build Feb 01 2018 12:10:03) gamma-only                       parallel </i>
  <i name="platform" type="string">LinuxIFC </i>
  <i name="date" type="string">2019 03 24 </i>
  <i name="time" type="string">07:54:33 </i>
 </generator>
 <incar>
  <i type="string" name="PREC">normal</i>
  <i type="int" name="ISPIN">     2</i>
  <i type="int" name="IBRION">     2</i>
  <i type="int" name="NSW">  1000</i>
  <i type="int" name="ISIF">     2</i>
  <i name="POTIM">      0.10000000</i>
  <i type="logical" name="LPLANE"> T  </i>
  <i type="int" name="ISMEAR">     0</i>
  <i name="SIGMA">      0.00010000</i>
  <i type="logical" name="LWAVE"> F  </i>
  <i type="logical" name="LCHARG"> F  </i>
  <i type="logical" name="LVTOT"> F  </i>
  <i type="string" name="GGA"> PE</i>
 </incar>
 <kpoints>
  <varray name="kpointlist" >
   <v>       0.00000000       0.00000000       0.00000000 </v>
  </varray>
  <varray name="weights" >
   <v>       1.00000000 </v>
  </varray>
 </kpoints>
 <parameters>
  <separator name="general" >
   <i type="string" name="SYSTEM">unknown system</i>
   <i type="logical" name="LCOMPAT"> F  </i>
  </separator>
  <separator name="electronic" >
   <i type="string" name="PREC">normal</i>
   <i name="ENMAX">    249.84400000</i>
   <i name="ENAUG">    412.49600000</i>
   <i name="EDIFF">      0.00010000</i>
   <i type="int" name="IALGO">    38</i>
   <i type="int" name="IWAVPR">    11</i>
   <i type="int" name="NBANDS">   340</i>
   <i name="NELECT">    528.00000000</i>
   <i type="int" name="TURBO">     0</i>
   <i type="int" name="IRESTART">     0</i>
   <i type="int" name="NREBOOT">     0</i>
   <i type="int" name="NMIN">     0</i>
   <i name="EREF">      0.00000000</i>
   <separator name="electronic smearing" >
    <i type="int" name="ISMEAR">     0</i>
    <i name="SIGMA">      0.00010000</i>
    <i name="KSPACING">      0.50000000</i>
    <i type="logical" name="KGAMMA"> T  </i>
   </separator>
   <separator name="electronic projectors" >
    <i type="logical" name="LREAL"> F  </i>
    <v name="ROPT">      0.00000000</v>
    <i type="int" name="LMAXPAW">  -100</i>
    <i type="int" name="LMAXMIX">     2</i>
    <i type="logical" name="NLSPLINE"> F  </i>
   </separator>
   <separator name="electronic startup" >
    <i type="int" name="ISTART">     0</i>
    <i type="int" name="ICHARG">     2</i>
    <i type="int" name="INIWAV">     1</i>
   </separator>
   <separator name="electronic spin" >
    <i type="int" name="ISPIN">     2</i>
    <i type="logical" name="LNONCOLLINEAR"> F  </i>
    <v name="MAGMOM">      1.00000000      1.00000000      1.00000000      1.00000000      1.00000000      1.00000000      1.00000000      1.00000000      1.00000000      1.00000000      1.00000000      1.00000000      1.00000000      1.00000000      1.00000000      1.00000000      1.00000000      1.00000000      1.00000000      1.00000000
      1.00000000      1.00000000      1.00000000      1.00000000      1.00000000      1.00000000      1.00000000      1.00000000      1.00000000      1.00000000      1.00000000      1.00000000      1.00000000      1.00000000      1.00000000      1.00000000      1.00000000      1.00000000      1.00000000      1.00000000
      1.00000000      1.00000000      1.00000000      1.00000000      1.00000000      1.00000000      1.00000000      1.00000000</v>
    <i name="NUPDOWN">     -1.00000000</i>
    <i type="logical" name="LSORBIT"> F  </i>
    <v name="SAXIS">      0.00000000      0.00000000      1.00000000</v>
    <i type="logical" name="LSPIRAL"> F  </i>
    <v name="QSPIRAL">      0.00000000      0.00000000      0.00000000</v>
    <i type="logical" name="LZEROZ"> F  </i>
   </separator>
   <separator name="electronic exchange-correlation" >
    <i type="logical" name="LASPH"> F  </i>
    <i type="logical" name="LMETAGGA"> F  </i>
   </separator>
   <separator name="electronic convergence" >
    <i type="int" name="NELM">    60</i>
    <i type="int" name="NELMDL">    -5</i>
    <i type="int" name="NELMIN">     2</i>
    <i name="ENINI">    249.84400000</i>
    <separator name="electronic convergence detail" >
     <i type="logical" name="LDIAG"> T  </i>
     <i type="logical" name="LSUBROT"> F  </i>
     <i name="WEIMIN">      0.00100000</i>
     <i name="EBREAK">      0.00000007</i>
     <i name="DEPER">      0.30000000</i>
     <i type="int" name="NRMM">     4</i>
     <i name="TIME">      0.40000000</i>
    </separator>
   </separator>
   <separator name="electronic mixer" >
    <i name="AMIX">      0.40000000</i>
    <i name="BMIX">      1.00000000</i>
    <i name="AMIN">      0.10000000</i>
    <i name="AMIX_MAG">      1.60000000</i>
    <i name="BMIX_MAG">      1.00000000</i>
    <separator name="electronic mixer details" >
     <i type="int" name="IMIX">     4</i>
     <i type="int" name="MAXMIX">   -45</i>
     <i name="WC">    100.00000000</i>
     <i type="int" name="INIMIX">     1</i>
     <i type="int" name="MIXPRE">     1</i>
     <i type="int" name="MREMOVE">     5</i>
    </separator>
   </separator>
   <separator name="electronic dipolcorrection" >
    <i type="logical" name="LDIPOL"> F  </i>
    <i type="logical" name="LMONO"> F  </i>
    <i type="int" name="IDIPOL">     0</i>
    <i name="EPSILON">      1.00000000</i>
    <v name="DIPOL">   -100.00000000   -100.00000000   -100.00000000</v>
    <i name="EFIELD">      0.00000000</i>
   </separator>
  </separator>
  <separator name="grids" >
   <i type="int" name="NGX">    90</i>
   <i type="int" name="NGY">    90</i>
   <i type="int" name="NGZ">    90</i>
   <i type="int" name="NGXF">   180</i>
   <i type="int" name="NGYF">   180</i>
   <i type="int" name="NGZF">   180</i>
   <i type="logical" name="ADDGRID"> F  </i>
  </separator>
  <separator name="ionic" >
   <i type="int" name="NSW">  1000</i>
   <i type="int" name="IBRION">     2</i>
   <i type="int" name="ISIF">     2</i>
   <i name="PSTRESS">      0.00000000</i>
   <i name="EDIFFG">      0.00100000</i>
   <i type="int" name="NFREE">     1</i>
   <i name="POTIM">      0.10000000</i>
   <i name="SMASS">     -3.00000000</i>
   <i name="SCALEE">      1.00000000</i>
  </separator>
  <separator name="ionic md" >
   <i name="TEBEG">      0.00010000</i>
   <i name="TEEND">      0.00010000</i>
   <i type="int" name="NBLOCK">     1</i>
   <i type="int" name="KBLOCK">  1000</i>
   <i type="int" name="NPACO">   256</i>
   <i name="APACO">     16.00000000</i>
  </separator>
  <separator name="symmetry" >
   <i type="int" name="ISYM">     2</i>
   <i name="SYMPREC">      0.00001000</i>
  </separator>
  <separator name="dos" >
   <i type="logical" name="LORBIT"> F  </i>
   <v name="RWIGS">     -1.00000000</v>
   <i type="int" name="NEDOS">   301</i>
   <i name="EMIN">     10.00000000</i>
   <i name="EMAX">    -10.00000000</i>
   <i name="EFERMI">      0.00000000</i>
  </separator>
  <separator name="writing" >
   <i type="int" name="NWRITE">     2</i>
   <i type="logical" name="LWAVE"> F  </i>
   <i type="logical" name="LCHARG"> F  </i>
   <i type="logical" name="LPARD"> F  </i>
   <i type="logical" name="LVTOT"> F  </i>
   <i type="logical" name="LVHAR"> F  </i>
   <i type="logical" name="LELF"> F  </i>
   <i type="logical" name="LOPTICS"> F  </i>
   <v name="STM">      0.00000000      0.00000000      0.00000000      0.00000000      0.00000000      0.00000000      0.00000000</v>
  </separator>
  <separator name="performance" >
   <i type="int" name="NPAR">     4</i>
   <i type="int" name="NSIM">     4</i>
   <i type="int" name="NBLK">    -1</i>
   <i type="logical" name="LPLANE"> T  </i>
   <i type="logical" name="LSCALAPACK"> T  </i>
   <i type="logical" name="LSCAAWARE"> F  </i>
   <i type="logical" name="LSCALU"> F  </i>
   <i type="logical" name="LASYNC"> F  </i>
   <i type="logical" name="LORBITALREAL"> F  </i>
  </separator>
  <separator name="miscellaneous" >
   <i type="int" name="IDIOT">     3</i>
   <i type="logical" name="LMUSIC"> F  </i>
   <v name="POMASS">    107.86800000</v>
   <v name="DARWINR">      0.00000000</v>
   <v name="DARWINV">      1.00000000</v>
   <i type="logical" name="LCORR"> T  </i>
  </separator>
  <i type="logical" name="GGA_COMPAT"> T  </i>
  <i type="logical" name="LBERRY"> F  </i>
  <i type="int" name="ICORELEVEL">     0</i>
  <i type="logical" name="LDAU"> F  </i>
  <i type="int" name="I_CONSTRAINED_M">     0</i>
  <separator name="electronic exchange-correlation" >
   <i type="string" name="GGA">PE</i>
   <i type="int" name="VOSKOWN">     0</i>
   <i type="logical" name="LHFCALC"> F  </i>
   <i type="string" name="PRECFOCK"></i>
   <i type="logical" name="LSYMGRAD"> F  </i>
   <i type="logical" name="LHFONE"> F  </i>
   <i type="logical" name="LRHFCALC"> F  </i>
   <i type="logical" name="LTHOMAS"> F  </i>
   <i type="logical" name="LMODELHF"> F  </i>
   <i name="ENCUT4O">     -1.00000000</i>
   <i type="int" name="EXXOEP">     0</i>
   <i type="int" name="FOURORBIT">     0</i>
   <i name="AEXX">      0.00000000</i>
   <i name="HFALPHA">      0.00000000</i>
   <i name="MCALPHA">      0.00000000</i>
   <i name="ALDAX">      1.00000000</i>
   <i name="AGGAX">      1.00000000</i>
   <i name="ALDAC">      1.00000000</i>
   <i name="AGGAC">      1.00000000</i>
   <i type="int" name="NKREDX">     1</i>
   <i type="int" name="NKREDY">     1</i>
   <i type="int" name="NKREDZ">     1</i>
   <i type="logical" name="SHIFTRED"> F  </i>
   <i type="logical" name="ODDONLY"> F  </i>
   <i type="logical" name="EVENONLY"> F  </i>
   <i type="int" name="LMAXFOCK">     0</i>
   <i type="int" name="NMAXFOCKAE">     0</i>
   <i type="logical" name="LFOCKAEDFT"> F  </i>
   <i name="HFSCREEN">      0.00000000</i>
   <i name="HFSCREENC">      0.00000000</i>
   <i type="int" name="NBANDSGWLOW">     0</i>
  </separator>
  <separator name="vdW DFT" >
   <i type="logical" name="LUSE_VDW"> F  </i>
   <i name="Zab_VDW">     -0.84910000</i>
   <i name="PARAM1">      0.12340000</i>
   <i name="PARAM2">      1.00000000</i>
   <i name="PARAM3">      0.00000000</i>
  </separator>
  <separator name="model GW" >
   <i type="int" name="MODEL_GW">     0</i>
   <i name="MODEL_EPS0">    157.54760914</i>
   <i name="MODEL_ALPHA">      1.00000000</i>
  </separator>
  <separator name="linear response parameters" >
   <i type="logical" name="LEPSILON"> F  </i>
   <i type="logical" name="LRPA"> F  </i>
   <i type="logical" name="LNABLA"> F  </i>
   <i type="logical" name="LVEL"> F  </i>
   <i type="int" name="KINTER">     0</i>
   <i name="CSHIFT">      0.10000000</i>
   <i name="OMEGAMAX">     -1.00000000</i>
   <i name="DEG_THRESHOLD">      0.00200000</i>
  </separator>
  <separator name="orbital magnetization" >
   <i type="logical" name="NUCIND"> F  </i>
   <v name="MAGPOS">      0.00000000      0.00000000      0.00000000</v>
   <i type="logical" name="LNICSALL"> T  </i>
   <i type="logical" name="ORBITALMAG"> F  </i>
   <i type="logical" name="LMAGBLOCH"> F  </i>
   <i type="logical" name="LCHIMAG"> F  </i>
   <i type="logical" name="LGAUGE"> T  </i>
   <i type="int" name="MAGATOM">     0</i>
   <v name="MAGDIPOL">      0.00000000      0.00000000      0.00000000</v>
   <v name="AVECCONST">      0.00000000      0.00000000      0.00000000</v>
  </separator>
  <separator name="response functions" >
   <i type="logical" name="LADDER"> F  </i>
   <i type="logical" name="LFXC"> F  </i>
   <i type="logical" name="LHARTREE"> T  </i>
   <i type="int" name="IBSE">     0</i>
   <i type="logical" name="LTCTE"> F  </i>
   <i type="logical" name="LTETE"> F  </i>
   <i type="logical" name="LTRIPLET"> F  </i>
   <i type="logical" name="LFXCEPS"> F  </i>
   <i type="logical" name="LFXHEG"> F  </i>
   <i type="logical" name="L2ORDER"> F  </i>
   <i type="logical" name="LUSEW"> F  </i>
   <i name="ENCUTGW">     -2.00000000</i>
   <i name="ENCUTGWSOFT">     -2.00000000</i>
   <i name="ENCUTLF">     -1.00000000</i>
   <i type="int" name="LMAXMP2">    -1</i>
   <i name="SCISSOR">      0.00000000</i>
   <i type="int" name="NOMEGA">     0</i>
   <i type="int" name="NOMEGAR">     0</i>
   <i type="int" name="NBANDSGW">    -1</i>
   <i type="int" name="NBANDSO">    -1</i>
   <i type="int" name="NBANDSV">    -1</i>
   <i type="int" name="NELM">     1</i>
   <i type="int" name="DIM">     3</i>
   <i type="int" name="ANTIRES">     0</i>
   <i name="OMEGAMAX">    -30.00000000</i>
   <i name="OMEGAMIN">    -30.00000000</i>
   <i name="OMEGATL">   -200.00000000</i>
   <i type="int" name="OMEGAGRID">     0</i>
   <i name="CSHIFT">     -0.10000000</i>
   <i type="logical" name="SELFENERGY"> F  </i>
   <i type="logical" name="LSPECTRAL"> F  </i>
   <i type="logical" name="ODDONLYGW"> F  </i>
   <i type="logical" name="EVENONLYGW"> F  </i>
   <i type="int" name="NKREDLFX">     1</i>
   <i type="int" name="NKREDLFY">     1</i>
   <i type="int" name="NKREDLFZ">     1</i>
   <i type="int" name="MAXMEM">  1800</i>
   <i type="int" name="TELESCOPE">     0</i>
   <i type="int" name="TAUPAR">     1</i>
  </separator>
  <separator name="External order field" >
   <i name="OFIELD_KAPPA">      0.00000000</i>
   <v name="OFIELD_K">      0.00000000      0.00000000      0.00000000</v>
   <i name="OFIELD_Q6_NEAR">      0.00000000</i>
   <i name="OFIELD_Q6_FAR">      0.00000000</i>
   <i name="OFIELD_A">      0.00000000</i>
  </separator>
 </parameters>
 <atominfo>
  <atoms>      48 </atoms>
  <types>       1 </types>
  <array name="atoms" >
   <dimension dim="1">ion</dimension>
   <field type="string">element</field>
   <field type="int">atomtype</field>
   <set>
    <rc><c>Ag</c><c>   1</c></rc>
    <rc><c>Ag</c><c>   1</c></rc>
    <rc><c>Ag</c><c>   1</c></rc>
    <rc><c>Ag</c><c>   1</c></rc>
    <rc><c>Ag</c><c>   1</c></rc>
    <rc><c>Ag</c><c>   1</c></rc>
    <rc><c>Ag</c><c>   1</c></rc>
    <rc><c>Ag</c><c>   1</c></rc>
    <rc><c>Ag</c><c>   1</c></rc>
    <rc><c>Ag</c><c>   1</c></rc>
    <rc><c>Ag</c><c>   1</c></rc>
    <rc><c>Ag</c><c>   1</c></rc>
    <rc><c>Ag</c><c>   1</c></rc>
    <rc><c>Ag</c><c>   1</c></rc>
    <rc><c>Ag</c><c>   1</c></rc>
    <rc><c>Ag</c><c>   1</c></rc>
    <rc><c>Ag</c><c>   1</c></rc>
    <rc><c>Ag</c><c>   1</c></rc>
    <rc><c>Ag</c><c>   1</c></rc>
    <rc><c>Ag</c><c>   1</c></rc>
    <rc><c>Ag</c><c>   1</c></rc>
    <rc><c>Ag</c><c>   1</c></rc>
    <rc><c>Ag</c><c>   1</c></rc>
    <rc><c>Ag</c><c>   1</c></rc>
    <rc><c>Ag</c><c>   1</c></rc>
    <rc><c>Ag</c><c>   1</c></rc>
    <rc><c>Ag</c><c>   1</c></rc>
    <rc><c>Ag</c><c>   1</c></rc>
    <rc><c>Ag</c><c>   1</c></rc>
    <rc><c>Ag</c><c>   1</c></rc>
    <rc><c>Ag</c><c>   1</c></rc>
    <rc><c>Ag</c><c>   1</c></rc>
    <rc><c>Ag</c><c>   1</c></rc>
    <rc><c>Ag</c><c>   1</c></rc>
    <rc><c>Ag</c><c>   1</c></rc>
    <rc><c>Ag</c><c>   1</c></rc>
    <rc><c>Ag</c><c>   1</c></rc>
    <rc><c>Ag</c><c>   1</c></rc>
    <rc><c>Ag</c><c>   1</c></rc>
    <rc><c>Ag</c><c>   1</c></rc>
    <rc><c>Ag</c><c>   1</c></rc>
    <rc><c>Ag</c><c>   1</c></rc>
    <rc><c>Ag</c><c>   1</c></rc>
    <rc><c>Ag</c><c>   1</c></rc>
    <rc><c>Ag</c><c>   1</c></rc>
    <rc><c>Ag</c><c>   1</c></rc>
    <rc><c>Ag</c><c>   1</c></rc>
    <rc><c>Ag</c><c>   1</c></rc>
   </set>
  </array>
  <array name="atomtypes" >
   <dimension dim="1">type</dimension>
   <field type="int">atomspertype</field>
   <field type="string">element</field>
   <field>mass</field>
   <field>valence</field>
   <field type="string">pseudopotential</field>
   <set>
    <rc><c>  48</c><c>Ag</c><c>    107.86800000</c><c>     11.00000000</c><c>  PAW_PBE Ag 02Apr2005                  </c></rc>
   </set>
  </array>
 </atominfo>
 <structure name="initialpos" >
  <crystal>
   <varray name="basis" >
    <v>      23.27201213       0.00000000       0.00000000 </v>
    <v>       0.00000000      23.27201213       0.00000000 </v>
    <v>       0.00000000       0.00000000      23.27201213 </v>
   </varray>
   <i name="volume">  12603.80873157 </i>
   <varray name="rec_basis" >
    <v>       0.04297007       0.00000000       0.00000000 </v>
    <v>       0.00000000       0.04297007       0.00000000 </v>
    <v>       0.00000000       0.00000000       0.04297007 </v>
   </varray>
  </crystal>
  <varray name="positions" >
   <v>       0.42509019       0.35046575       0.60645307 </v>
   <v>       0.50984207       0.40048791       0.67977233 </v>
   <v>       0.39249440       0.58230985       0.68950319 </v>
   <v>       0.41081735       0.46266583       0.64911246 </v>
   <v>       0.64810991       0.40284943       0.64665244 </v>
   <v>       0.32051568       0.53507226       0.61152200 </v>
   <v>       0.49113697       0.52200501       0.71633830 </v>
   <v>       0.47469299       0.27702071       0.52728156 </v>
   <v>       0.40011067       0.35572775       0.48007158 </v>
   <v>       0.34167959       0.42505682       0.55900087 </v>
   <v>       0.46390737       0.66770723       0.64934432 </v>
   <v>       0.55308803       0.35829540       0.57558202 </v>
   <v>       0.46760007       0.44549383       0.54303756 </v>
   <v>       0.37107302       0.64359557       0.58090130 </v>
   <v>       0.59536257       0.46898800       0.73249178 </v>
   <v>       0.46420299       0.55795243       0.59441841 </v>
   <v>       0.26970435       0.61370062       0.52431150 </v>
   <v>       0.56188986       0.48803012       0.61695473 </v>
   <v>       0.64241974       0.35654132       0.42055020 </v>
   <v>       0.66505523       0.54337001       0.67135347 </v>
   <v>       0.52486379       0.35925270       0.45847364 </v>
   <v>       0.67026598       0.37796452       0.53446179 </v>
   <v>       0.33202793       0.44521291       0.43483648 </v>
   <v>       0.25507115       0.49461753       0.51626619 </v>
   <v>       0.37355450       0.53618666       0.50712227 </v>
   <v>       0.68782577       0.49366357       0.56846899 </v>
   <v>       0.58069118       0.46081899       0.50528148 </v>
   <v>       0.27718352       0.55753370       0.41789804 </v>
   <v>       0.45354346       0.45220743       0.42497727 </v>
   <v>       0.68879991       0.46532897       0.45238856 </v>
   <v>       0.56344757       0.60538143       0.66374860 </v>
   <v>       0.56870622       0.44596733       0.38469145 </v>
   <v>       0.49106042       0.55225630       0.47986088 </v>
   <v>       0.48870671       0.66019340       0.53463502 </v>
   <v>       0.39264515       0.55014464       0.38981614 </v>
   <v>       0.36458725       0.64527441       0.45718763 </v>
   <v>       0.59587491       0.57901330       0.55208729 </v>
   <v>       0.67587681       0.43041154       0.33559299 </v>
   <v>       0.60281088       0.55408190       0.42828448 </v>
   <v>       0.70460588       0.58042793       0.48911419 </v>
   <v>       0.50214903       0.54055461       0.35561847 </v>
   <v>       0.47127337       0.64948223       0.41201819 </v>
   <v>       0.58996787       0.66606282       0.47341010 </v>
   <v>       0.70811891       0.54565612       0.36988367 </v>
   <v>       0.60704462       0.52465286       0.30019778 </v>
   <v>       0.57117887       0.64397020       0.35110450 </v>
   <v>       0.68508108       0.66193529       0.40301638 </v>
   <v>       0.66919741       0.62633466       0.28925966 </v>
  </varray>
 </structure>
 <calculation>
  <scstep>
   <time name="dav">    5.52    5.52</time>
   <time name="total">    5.75    5.77</time>
   <energy>
    <i name="alphaZ">    155.48727474 </i>
    <i name="ewald"> 139604.92120313 </i>
    <i name="hartreedc">-187492.37338165 </i>
    <i name="XCdc">   -522.62343011 </i>
    <i name="pawpsdc">  48161.86454734 </i>
    <i name="pawaedc"> -45948.70122619 </i>
    <i name="eentropy">      0.00000000 </i>
    <i name="bandstr">    622.62006730 </i>
    <i name="atom">  49785.53424414 </i>
    <i name="e_fr_energy">   4366.72929871 </i>
    <i name="e_wo_entrp">   4366.72929871 </i>
    <i name="e_0_energy">   4366.72929871 </i>
   </energy>
  </scstep>
  <scstep>
   <time name="dav">    7.96    7.96</time>
   <time name="total">    7.96    8.80</time>
   <energy>
    <i name="e_fr_energy">    695.95300642 </i>
    <i name="e_wo_entrp">    695.95300642 </i>
    <i name="e_0_energy">    695.95300642 </i>
   </energy>
  </scstep>
  <scstep>
   <time name="dav">    6.46    6.46</time>
   <time name="total">    6.46    6.47</time>
   <energy>
    <i name="e_fr_energy">    -73.00901685 </i>
    <i name="e_wo_entrp">    -73.00901685 </i>
    <i name="e_0_energy">    -73.00901685 </i>
   </energy>
  </scstep>
  <scstep>
   <time name="dav">    5.81    5.81</time>
   <time name="total">    5.81    5.82</time>
   <energy>
    <i name="e_fr_energy">   -103.83737267 </i>
    <i name="e_wo_entrp">   -103.83737267 </i>
    <i name="e_0_energy">   -103.83737267 </i>
   </energy>
  </scstep>
  <scstep>
   <time name="dav">    5.94    5.94</time>
   <time name="total">    6.08    6.09</time>
   <energy>
    <i name="e_fr_energy">   -104.30692367 </i>
    <i name="e_wo_entrp">   -104.30692367 </i>
    <i name="e_0_energy">   -104.30692367 </i>
   </energy>
  </scstep>
  <scstep>
   <time name="dav">    5.46    5.46</time>
   <time name="total">    5.82    5.85</time>
   <energy>
    <i name="e_fr_energy">    -51.73600293 </i>
    <i name="e_wo_entrp">    -51.73600293 </i>
    <i name="e_0_energy">    -51.73600293 </i>
   </energy>
  </scstep>
  <scstep>
   <time name="dav">    5.64    5.65</time>
   <time name="total">    6.01    6.02</time>
   <energy>
    <i name="e_fr_energy">    -46.08256663 </i>
    <i name="e_wo_entrp">    -46.08256663 </i>
    <i name="e_0_energy">    -46.08256663 </i>
   </energy>
  </scstep>
  <scstep>
   <time name="dav">    5.75    5.75</time>
   <time name="total">    6.11    6.95</time>
   <energy>
    <i name="e_fr_energy">    -36.55583731 </i>
    <i name="e_wo_entrp">    -36.55583731 </i>
    <i name="e_0_energy">    -36.55583731 </i>
   </energy>
  </scstep>
  <scstep>
   <time name="dav">    5.82    5.82</time>
   <time name="total">    6.18    6.19</time>
   <energy>
    <i name="e_fr_energy">    -43.52863507 </i>
    <i name="e_wo_entrp">    -43.52863507 </i>
    <i name="e_0_energy">    -43.52863507 </i>
   </energy>
  </scstep>
  <scstep>
   <time name="dav">    5.71    5.72</time>
   <time name="total">    6.08    6.20</time>
   <energy>
    <i name="e_fr_energy">    -48.80977874 </i>
    <i name="e_wo_entrp">    -48.80977874 </i>
    <i name="e_0_energy">    -48.80977874 </i>
   </energy>
  </scstep>
  <scstep>
   <time name="dav">    5.62    5.62</time>
   <time name="total">    5.98    6.01</time>
   <energy>
    <i name="e_fr_energy">    -65.90126741 </i>
    <i name="e_wo_entrp">    -65.90126741 </i>
    <i name="e_0_energy">    -65.90126741 </i>
   </energy>
  </scstep>
  <scstep>
   <time name="dav">    5.84    5.85</time>
   <time name="total">    6.21    7.58</time>
   <energy>
    <i name="e_fr_energy">    -71.85877035 </i>
    <i name="e_wo_entrp">    -71.85877035 </i>
    <i name="e_0_energy">    -71.85877035 </i>
   </energy>
  </scstep>
  <scstep>
   <time name="dav">    5.56    5.57</time>
   <time name="total">    5.93   12.08</time>
   <energy>
    <i name="e_fr_energy">    -83.03179093 </i>
    <i name="e_wo_entrp">    -83.03179093 </i>
    <i name="e_0_energy">    -83.03179093 </i>
   </energy>
  </scstep>
  <scstep>
   <time name="dav">    5.72    5.73</time>
   <time name="total">    6.09    6.10</time>
   <energy>
    <i name="e_fr_energy">    -87.33149309 </i>
    <i name="e_wo_entrp">    -87.33149309 </i>
    <i name="e_0_energy">    -87.33149309 </i>
   </energy>
  </scstep>
  <scstep>
   <time name="dav">    5.57    5.57</time>
   <time name="total">    5.94    7.39</time>
   <energy>
    <i name="e_fr_energy">    -92.58106707 </i>
    <i name="e_wo_entrp">    -92.58106707 </i>
    <i name="e_0_energy">    -92.58106707 </i>
   </energy>
  </scstep>
  <scstep>
   <time name="dav">    5.85    5.85</time>
   <time name="total">    6.22    6.37</time>
   <energy>
    <i name="e_fr_energy">    -93.89210804 </i>
    <i name="e_wo_entrp">    -93.89210804 </i>
    <i name="e_0_energy">    -93.89210804 </i>
   </energy>
  </scstep>
  <scstep>
   <time name="dav">    5.55    5.55</time>
   <time name="total">    5.92    5.99</time>
   <energy>
    <i name="e_fr_energy">    -96.79447016 </i>
    <i name="e_wo_entrp">    -96.79447016 </i>
    <i name="e_0_energy">    -96.79447016 </i>
   </energy>
  </scstep>
  <scstep>
   <time name="dav">    5.80    5.80</time>
   <time name="total">    6.16    8.61</time>
   <energy>
    <i name="e_fr_energy">    -97.38980736 </i>
    <i name="e_wo_entrp">    -97.38980736 </i>
    <i name="e_0_energy">    -97.38980736 </i>
   </energy>
  </scstep>
  <scstep>
   <time name="dav">    5.64    5.64</time>
   <time name="total">    6.01    6.13</time>
   <energy>
    <i name="e_fr_energy">    -98.64753619 </i>
    <i name="e_wo_entrp">    -98.64753619 </i>
    <i name="e_0_energy">    -98.64753619 </i>
   </energy>
  </scstep>
  <scstep>
   <time name="dav">    5.65    5.66</time>
   <time name="total">    6.02    6.91</time>
   <energy>
    <i name="e_fr_energy">   -100.03353997 </i>
    <i name="e_wo_entrp">   -100.03353997 </i>
    <i name="e_0_energy">   -100.03353997 </i>
   </energy>
  </scstep>
  <scstep>
   <time name="dav">    5.73    5.73</time>
   <time name="total">    6.10    6.49</time>
   <energy>
    <i name="e_fr_energy">   -101.15913280 </i>
    <i name="e_wo_entrp">   -101.15913280 </i>
    <i name="e_0_energy">   -101.15913280 </i>
   </energy>
  </scstep>
  <scstep>
   <time name="dav">    5.75    5.76</time>
   <time name="total">    6.12    6.13</time>
   <energy>
    <i name="e_fr_energy">   -101.76360796 </i>
    <i name="e_wo_entrp">   -101.76360796 </i>
    <i name="e_0_energy">   -101.76360796 </i>
   </energy>
  </scstep>
  <scstep>
   <time name="dav">    5.66    5.67</time>
   <time name="total">    6.04    6.04</time>
   <energy>
    <i name="e_fr_energy">   -102.24897506 </i>
    <i name="e_wo_entrp">   -102.24896655 </i>
    <i name="e_0_energy">   -102.24897080 </i>
   </energy>
  </scstep>
  <scstep>
   <time name="dav">    4.52    4.53</time>
   <time name="total">    4.89    5.89</time>
   <energy>
    <i name="e_fr_energy">   -102.24630926 </i>
    <i name="e_wo_entrp">   -102.24626696 </i>
    <i name="e_0_energy">   -102.24628811 </i>
   </energy>
  </scstep>
  <scstep>
   <time name="dav">    5.01    5.01</time>
   <time name="total">    5.38    5.39</time>
   <energy>
    <i name="e_fr_energy">   -102.37158052 </i>
    <i name="e_wo_entrp">   -102.37158052 </i>
    <i name="e_0_energy">   -102.37158052 </i>
   </energy>
  </scstep>
  <scstep>
   <time name="dav">    4.78    4.78</time>
   <time name="total">    5.15    9.23</time>
   <energy>
    <i name="e_fr_energy">   -102.45208113 </i>
    <i name="e_wo_entrp">   -102.45208096 </i>
    <i name="e_0_energy">   -102.45208104 </i>
   </energy>
  </scstep>
  <scstep>
   <time name="dav">    5.04    5.04</time>
   <time name="total">    5.40    5.97</time>
   <energy>
    <i name="e_fr_energy">   -102.50295197 </i>
    <i name="e_wo_entrp">   -102.50295197 </i>
    <i name="e_0_energy">   -102.50295197 </i>
   </energy>
  </scstep>
  <scstep>
   <time name="dav">    4.36    4.36</time>
   <time name="total">    4.73    4.74</time>
   <energy>
    <i name="e_fr_energy">   -102.51409942 </i>
    <i name="e_wo_entrp">   -102.51409942 </i>
    <i name="e_0_energy">   -102.51409942 </i>
   </energy>
  </scstep>
  <scstep>
   <time name="dav">    4.22    4.22</time>
   <time name="total">    4.59    4.60</time>
   <energy>
    <i name="e_fr_energy">   -102.52959258 </i>
    <i name="e_wo_entrp">   -102.52959258 </i>
    <i name="e_0_energy">   -102.52959258 </i>
   </energy>
  </scstep>
  <scstep>
   <time name="dav">    4.24    4.25</time>
   <time name="total">    4.62    4.83</time>
   <energy>
    <i name="e_fr_energy">   -102.53919066 </i>
    <i name="e_wo_entrp">   -102.53919066 </i>
    <i name="e_0_energy">   -102.53919066 </i>
   </energy>
  </scstep>
  <scstep>
   <time name="dav">    4.28    4.28</time>
   <time name="total">    4.65    4.69</time>
   <energy>
    <i name="e_fr_energy">   -102.54219483 </i>
    <i name="e_wo_entrp">   -102.54219483 </i>
    <i name="e_0_energy">   -102.54219483 </i>
   </energy>
  </scstep>
  <scstep>
   <time name="dav">    4.14    4.15</time>
   <time name="total">    4.52    5.14</time>
   <energy>
    <i name="e_fr_energy">   -102.54697954 </i>
    <i name="e_wo_entrp">   -102.54697954 </i>
    <i name="e_0_energy">   -102.54697954 </i>
   </energy>
  </scstep>
  <scstep>
   <time name="dav">    4.19    4.19</time>
   <time name="total">    4.56    5.08</time>
   <energy>
    <i name="e_fr_energy">   -102.54841551 </i>
    <i name="e_wo_entrp">   -102.54841551 </i>
    <i name="e_0_energy">   -102.54841551 </i>
   </energy>
  </scstep>
  <scstep>
   <time name="dav">    4.01    4.02</time>
   <time name="total">    4.39    5.07</time>
   <energy>
    <i name="e_fr_energy">   -102.54876802 </i>
    <i name="e_wo_entrp">   -102.54876802 </i>
    <i name="e_0_energy">   -102.54876802 </i>
   </energy>
  </scstep>
  <scstep>
   <time name="dav">    4.12    4.12</time>
   <time name="total">    4.50    4.50</time>
   <energy>
    <i name="e_fr_energy">   -102.54914347 </i>
    <i name="e_wo_entrp">   -102.54914347 </i>
    <i name="e_0_energy">   -102.54914347 </i>
   </energy>
  </scstep>
  <scstep>
   <time name="dav">    4.11    4.11</time>
   <time name="total">    4.49    4.51</time>
   <energy>
    <i name="e_fr_energy">   -102.54928468 </i>
    <i name="e_wo_entrp">   -102.54928468 </i>
    <i name="e_0_energy">   -102.54928468 </i>
   </energy>
  </scstep>
  <scstep>
   <time name="dav">    4.08    4.09</time>
   <time name="total">    4.46    6.21</time>
   <energy>
    <i name="e_fr_energy">   -102.54947046 </i>
    <i name="e_wo_entrp">   -102.54947046 </i>
    <i name="e_0_energy">   -102.54947046 </i>
   </energy>
  </scstep>
  <scstep>
   <time name="dav">    4.07    4.07</time>
   <time name="total">    4.45    4.45</time>
   <energy>
    <i name="e_fr_energy">   -102.54977595 </i>
    <i name="e_wo_entrp">   -102.54977595 </i>
    <i name="e_0_energy">   -102.54977595 </i>
   </energy>
  </scstep>
  <scstep>
   <time name="dav">    4.28    4.28</time>
   <time name="total">    4.66    5.67</time>
   <energy>
    <i name="e_fr_energy">   -102.55003459 </i>
    <i name="e_wo_entrp">   -102.55003459 </i>
    <i name="e_0_energy">   -102.55003459 </i>
   </energy>
  </scstep>
  <scstep>
   <time name="dav">    4.20    4.20</time>
   <time name="total">    4.58    5.54</time>
   <energy>
    <i name="e_fr_energy">   -102.55040393 </i>
    <i name="e_wo_entrp">   -102.55040393 </i>
    <i name="e_0_energy">   -102.55040393 </i>
   </energy>
  </scstep>
  <scstep>
   <time name="dav">    5.60    5.60</time>
   <time name="total">    5.97    5.98</time>
   <energy>
    <i name="e_fr_energy">   -102.55092838 </i>
    <i name="e_wo_entrp">   -102.55092838 </i>
    <i name="e_0_energy">   -102.55092838 </i>
   </energy>
  </scstep>
  <scstep>
   <time name="dav">    4.39    4.39</time>
   <time name="total">    4.77    4.77</time>
   <energy>
    <i name="e_fr_energy">   -102.55116334 </i>
    <i name="e_wo_entrp">   -102.55116334 </i>
    <i name="e_0_energy">   -102.55116334 </i>
   </energy>
  </scstep>
  <scstep>
   <time name="dav">    5.64    5.64</time>
   <time name="total">    6.02    8.08</time>
   <energy>
    <i name="e_fr_energy">   -102.55183658 </i>
    <i name="e_wo_entrp">   -102.55183658 </i>
    <i name="e_0_energy">   -102.55183658 </i>
   </energy>
  </scstep>
  <scstep>
   <time name="dav">    5.84    5.84</time>
   <time name="total">    6.22    6.22</time>
   <energy>
    <i name="e_fr_energy">   -102.55249249 </i>
    <i name="e_wo_entrp">   -102.55249249 </i>
    <i name="e_0_energy">   -102.55249249 </i>
   </energy>
  </scstep>
  <scstep>
   <time name="dav">    5.56    5.57</time>
   <time name="total">    5.95    7.94</time>
   <energy>
    <i name="e_fr_energy">   -102.55344494 </i>
    <i name="e_wo_entrp">   -102.55344494 </i>
    <i name="e_0_energy">   -102.55344494 </i>
   </energy>
  </scstep>
  <scstep>
   <time name="dav">    5.62    5.62</time>
   <time name="total">    6.00   12.55</time>
   <energy>
    <i name="e_fr_energy">   -102.55442031 </i>
    <i name="e_wo_entrp">   -102.55442031 </i>
    <i name="e_0_energy">   -102.55442031 </i>
   </energy>
  </scstep>
  <scstep>
   <time name="dav">    5.60    5.61</time>
   <time name="total">    5.98    5.99</time>
   <energy>
    <i name="e_fr_energy">   -102.55572164 </i>
    <i name="e_wo_entrp">   -102.55572164 </i>
    <i name="e_0_energy">   -102.55572164 </i>
   </energy>
  </scstep>
  <scstep>
   <time name="dav">    4.51    4.51</time>
   <time name="total">    4.74    4.74</time>
   <energy>
    <i name="alphaZ">    155.48727474 </i>
    <i name="ewald"> 139604.92120313 </i>
    <i name="hartreedc">-187393.18054053 </i>
    <i name="XCdc">   -542.02583871 </i>
    <i name="pawpsdc">  52089.64740853 </i>
    <i name="pawaedc"> -49968.13329847 </i>
    <i name="eentropy">     -0.00000000 </i>
    <i name="bandstr">  -3834.80623471 </i>
    <i name="atom">  49785.53424414 </i>
    <i name="e_fr_energy">   -102.55578188 </i>
    <i name="e_wo_entrp">   -102.55578188 </i>
    <i name="e_0_energy">   -102.55578188 </i>
   </energy>
  </scstep>
  <structure>
   <crystal>
    <varray name="basis" >
     <v>      23.27201213       0.00000000       0.00000000 </v>
     <v>       0.00000000      23.27201213       0.00000000 </v>
     <v>       0.00000000       0.00000000      23.27201213 </v>
    </varray>
    <i name="volume">  12603.80873157 </i>
    <varray name="rec_basis" >
     <v>       0.04297007       0.00000000       0.00000000 </v>
     <v>       0.00000000       0.04297007       0.00000000 </v>
     <v>       0.00000000       0.00000000       0.04297007 </v>
    </varray>
   </crystal>
   <varray name="positions" >
    <v>       0.42509019       0.35046575       0.60645307 </v>
    <v>       0.50984207       0.40048791       0.67977233 </v>
    <v>       0.39249440       0.58230985       0.68950319 </v>
    <v>       0.41081735       0.46266583       0.64911246 </v>
    <v>       0.64810991       0.40284943       0.64665244 </v>
    <v>       0.32051568       0.53507226       0.61152200 </v>
    <v>       0.49113697       0.52200501       0.71633830 </v>
    <v>       0.47469299       0.27702071       0.52728156 </v>
    <v>       0.40011067       0.35572775       0.48007158 </v>
    <v>       0.34167959       0.42505682       0.55900087 </v>
    <v>       0.46390737       0.66770723       0.64934432 </v>
    <v>       0.55308803       0.35829540       0.57558202 </v>
    <v>       0.46760007       0.44549383       0.54303756 </v>
    <v>       0.37107302       0.64359557       0.58090130 </v>
    <v>       0.59536257       0.46898800       0.73249178 </v>
    <v>       0.46420299       0.55795243       0.59441841 </v>
    <v>       0.26970435       0.61370062       0.52431150 </v>
    <v>       0.56188986       0.48803012       0.61695473 </v>
    <v>       0.64241974       0.35654132       0.42055020 </v>
    <v>       0.66505523       0.54337001       0.67135347 </v>
    <v>       0.52486379       0.35925270       0.45847364 </v>
    <v>       0.67026598       0.37796452       0.53446179 </v>
    <v>       0.33202793       0.44521291       0.43483648 </v>
    <v>       0.25507115       0.49461753       0.51626619 </v>
    <v>       0.37355450       0.53618666       0.50712227 </v>
    <v>       0.68782577       0.49366357       0.56846899 </v>
    <v>       0.58069118       0.46081899       0.50528148 </v>
    <v>       0.27718352       0.55753370       0.41789804 </v>
    <v>       0.45354346       0.45220743       0.42497727 </v>
    <v>       0.68879991       0.46532897       0.45238856 </v>
    <v>       0.56344757       0.60538143       0.66374860 </v>
    <v>       0.56870622       0.44596733       0.38469145 </v>
    <v>       0.49106042       0.55225630       0.47986088 </v>
    <v>       0.48870671       0.66019340       0.53463502 </v>
    <v>       0.39264515       0.55014464       0.38981614 </v>
    <v>       0.36458725       0.64527441       0.45718763 </v>
    <v>       0.59587491       0.57901330       0.55208729 </v>
    <v>       0.67587681       0.43041154       0.33559299 </v>
    <v>       0.60281088       0.55408190       0.42828448 </v>
    <v>       0.70460588       0.58042793       0.48911419 </v>
    <v>       0.50214903       0.54055461       0.35561847 </v>
    <v>       0.47127337       0.64948223       0.41201819 </v>
    <v>       0.58996787       0.66606282       0.47341010 </v>
    <v>       0.70811891       0.54565612       0.36988367 </v>
    <v>       0.60704462       0.52465286       0.30019778 </v>
    <v>       0.57117887       0.64397020       0.35110450 </v>
    <v>       0.68508108       0.66193529       0.40301638 </v>
    <v>       0.66919741       0.62633466       0.28925966 </v>
   </varray>
  </structure>
  <varray name="forces" >
   <v>       0.12398544      -0.00282700       0.01391783 </v>
   <v>       0.00606163       0.06983232       0.10128037 </v>
   <v>      -0.04316027       0.00340570       0.11030420 </v>
   <v>      -0.21361907       0.02971502       0.44160126 </v>
   <v>      -0.16179539       0.17701354      -0.07978826 </v>
   <v>      -0.37991266      -0.09348947       0.00978418 </v>
   <v>      -0.03370106      -0.09036688      -0.07619527 </v>
   <v>       0.23286017      -0.17313431       0.06535966 </v>
   <v>       0.22290834       0.11912980      -0.08777187 </v>
   <v>      -0.02245880      -0.02439365       0.02566574 </v>
   <v>       0.09926277       0.19404893       0.30115703 </v>
   <v>       0.07530175       0.04747456       0.18514933 </v>
   <v>      -0.06256245      -0.13068465       0.20534226 </v>
   <v>      -0.02722643      -0.02250975       0.01692474 </v>
   <v>       0.06880331      -0.04869512       0.08032766 </v>
   <v>      -0.08636594       0.20152978       0.31212400 </v>
   <v>       0.13003329       0.04014219       0.08561075 </v>
   <v>       0.12830384      -0.28542592       0.57988231 </v>
   <v>      -0.08196746      -0.01077701       0.17998414 </v>
   <v>      -0.24671088      -0.14195419      -0.07409931 </v>
   <v>      -0.05494779      -0.00520848      -0.18393098 </v>
   <v>       0.01260687      -0.16013010       0.04728196 </v>
   <v>       0.07787411       0.12963833      -0.12053407 </v>
   <v>      -0.01048913      -0.14703543       0.23045491 </v>
   <v>      -0.04864758      -0.14539422       0.00745487 </v>
   <v>      -0.24517906      -0.28194274       0.05920570 </v>
   <v>      -0.08353429      -0.14223272      -0.22751639 </v>
   <v>       0.28549281       0.09228795      -0.02557116 </v>
   <v>      -0.15275589      -0.30384901      -0.39650489 </v>
   <v>       0.17102437      -0.36749701      -0.18573901 </v>
   <v>      -0.09136628      -0.02472108       0.11408667 </v>
   <v>      -0.05305100      -0.25268074       0.01782857 </v>
   <v>       0.31254369       0.01530203      -0.17412261 </v>
   <v>      -0.15204124       0.15444796      -0.16947099 </v>
   <v>      -0.19805222       0.10301956      -0.18553797 </v>
   <v>      -0.17970877       0.22485501       0.13598520 </v>
   <v>       0.13639524       0.11001275      -0.06563212 </v>
   <v>       0.21507118       0.25217864      -0.09137995 </v>
   <v>      -0.00098100       0.19418121       0.00042769 </v>
   <v>      -0.14316890       0.11361843      -0.00568076 </v>
   <v>       0.17231284       0.28663542      -0.10157707 </v>
   <v>       0.14005894       0.14032100      -0.11212783 </v>
   <v>      -0.18713797       0.14400120      -0.28350002 </v>
   <v>       0.19565175       0.07495737      -0.36619865 </v>
   <v>       0.20305000       0.09158900       0.06897502 </v>
   <v>       0.08323819      -0.02105569      -0.02772069 </v>
   <v>      -0.17085653      -0.16817261      -0.15706350 </v>
   <v>       0.03855753       0.03484004      -0.19845267 </v>
  </varray>
  <varray name="stress" >
   <v>      -2.07614832      -0.24481501      -0.84226551 </v>
   <v>      -0.24481501      -1.53869169      -0.31823624 </v>
   <v>      -0.84226550      -0.31823624      -0.70113831 </v>
  </varray>
  <energy>
   <i name="e_fr_energy">   -102.55578188 </i>
   <i name="e_wo_entrp">   -102.55578188 </i>
   <i name="e_0_energy">     -0.00000000 </i>
  </energy>
  <time name="totalsc">  277.73  318.11</time>
 </calculation>
 <calculation>
  <scstep>
   <time name="dav">    5.50    5.50</time>
   <time name="total">    5.86    5.89</time>
   <energy>
    <i name="alphaZ">    155.48727474 </i>
    <i name="ewald"> 139550.86066826 </i>
    <i name="hartreedc">-187339.38166355 </i>
    <i name="XCdc">   -542.06462002 </i>
    <i name="pawpsdc">  52089.63247415 </i>
    <i name="pawaedc"> -49968.11858569 </i>
    <i name="eentropy">      0.00000000 </i>
    <i name="bandstr">  -3834.54235423 </i>
    <i name="atom">  49785.53424414 </i>
    <i name="e_fr_energy">   -102.59256219 </i>
    <i name="e_wo_entrp">   -102.59256219 </i>
    <i name="e_0_energy">   -102.59256219 </i>
   </energy>
  </scstep>
  <scstep>
   <time name="dav">    5.63    5.64</time>
   <time name="total">    6.00    8.44</time>
   <energy>
    <i name="e_fr_energy">   -102.57761751 </i>
    <i name="e_wo_entrp">   -102.57761751 </i>
    <i name="e_0_energy">   -102.57761751 </i>
   </energy>
  </scstep>
  <scstep>
   <time name="dav">    5.84    5.85</time>
   <time name="total">    6.20    6.21</time>
   <energy>
    <i name="e_fr_energy">   -102.56322553 </i>
    <i name="e_wo_entrp">   -102.56322553 </i>
    <i name="e_0_energy">   -102.56322553 </i>
   </energy>
  </scstep>
  <scstep>
   <time name="dav">    5.78    5.78</time>
   <time name="total">    6.14    6.15</time>
   <energy>
    <i name="e_fr_energy">   -102.54870750 </i>
    <i name="e_wo_entrp">   -102.54870750 </i>
    <i name="e_0_energy">   -102.54870750 </i>
   </energy>
  </scstep>
  <scstep>
   <time name="dav">    5.72    5.73</time>
   <time name="total">    6.09    7.52</time>
   <energy>
    <i name="e_fr_energy">   -102.53877640 </i>
    <i name="e_wo_entrp">   -102.53877640 </i>
    <i name="e_0_energy">   -102.53877640 </i>
   </energy>
  </scstep>
  <scstep>
   <time name="dav">    5.39    5.40</time>
   <time name="total">    5.75    5.77</time>
   <energy>
    <i name="e_fr_energy">   -102.54262092 </i>
    <i name="e_wo_entrp">   -102.54262092 </i>
    <i name="e_0_energy">   -102.54262092 </i>
   </energy>
  </scstep>
  <scstep>
   <time name="dav">    4.36    4.36</time>
   <time name="total">    4.72    4.75</time>
   <energy>
    <i name="e_fr_energy">   -102.54520449 </i>
    <i name="e_wo_entrp">   -102.54520449 </i>
    <i name="e_0_energy">   -102.54520449 </i>
   </energy>
  </scstep>
  <scstep>
   <time name="dav">    4.81    4.81</time>
   <time name="total">    5.18    5.92</time>
   <energy>
    <i name="e_fr_energy">   -102.53902351 </i>
    <i name="e_wo_entrp">   -102.53902351 </i>
    <i name="e_0_energy">   -102.53902351 </i>
   </energy>
  </scstep>
  <scstep>
   <time name="dav">    5.27    5.27</time>
   <time name="total">    5.64    5.64</time>
   <energy>
    <i name="e_fr_energy">   -102.54559849 </i>
    <i name="e_wo_entrp">   -102.54559849 </i>
    <i name="e_0_energy">   -102.54559849 </i>
   </energy>
  </scstep>
  <scstep>
   <time name="dav">    5.19    5.19</time>
   <time name="total">    5.55    9.98</time>
   <energy>
    <i name="e_fr_energy">   -102.55759384 </i>
    <i name="e_wo_entrp">   -102.55759384 </i>
    <i name="e_0_energy">   -102.55759384 </i>
   </energy>
  </scstep>
  <scstep>
   <time name="dav">    5.75    5.76</time>
   <time name="total">    6.12    6.13</time>
   <energy>
    <i name="e_fr_energy">   -102.56763940 </i>
    <i name="e_wo_entrp">   -102.56763940 </i>
    <i name="e_0_energy">   -102.56763940 </i>
   </energy>
  </scstep>
  <scstep>
   <time name="dav">    5.34    5.35</time>
   <time name="total">    5.71    5.72</time>
   <energy>
    <i name="e_fr_energy">   -102.57495189 </i>
    <i name="e_wo_entrp">   -102.57495189 </i>
    <i name="e_0_energy">   -102.57495189 </i>
   </energy>
  </scstep>
  <scstep>
   <time name="dav">    4.26    4.26</time>
   <time name="total">    4.62    7.24</time>
   <energy>
    <i name="e_fr_energy">   -102.58055460 </i>
    <i name="e_wo_entrp">   -102.58055460 </i>
    <i name="e_0_energy">   -102.58055460 </i>
   </energy>
  </scstep>
  <scstep>
   <time name="dav">    4.33    4.33</time>
   <time name="total">    4.70    4.76</time>
   <energy>
    <i name="e_fr_energy">   -102.58384416 </i>
    <i name="e_wo_entrp">   -102.58384416 </i>
    <i name="e_0_energy">   -102.58384416 </i>
   </energy>
  </scstep>
  <scstep>
   <time name="dav">    4.21    4.21</time>
   <time name="total">    4.58    4.63</time>
   <energy>
    <i name="e_fr_energy">   -102.58760440 </i>
    <i name="e_wo_entrp">   -102.58760440 </i>
    <i name="e_0_energy">   -102.58760440 </i>
   </energy>
  </scstep>
  <scstep>
   <time name="dav">    4.28    4.29</time>
   <time name="total">    4.65    5.12</time>
   <energy>
    <i name="e_fr_energy">   -102.59109363 </i>
    <i name="e_wo_entrp">   -102.59109363 </i>
    <i name="e_0_energy">   -102.59109363 </i>
   </energy>
  </scstep>
  <scstep>
   <time name="dav">    4.26    4.26</time>
   <time name="total">    4.62    4.63</time>
   <energy>
    <i name="e_fr_energy">   -102.59343167 </i>
    <i name="e_wo_entrp">   -102.59343167 </i>
    <i name="e_0_energy">   -102.59343167 </i>
   </energy>
  </scstep>
  <scstep>
   <time name="dav">    4.26    4.26</time>
   <time name="total">    4.63    4.76</time>
   <energy>
    <i name="e_fr_energy">   -102.59496975 </i>
    <i name="e_wo_entrp">   -102.59496975 </i>
    <i name="e_0_energy">   -102.59496975 </i>
   </energy>
  </scstep>
  <scstep>
   <time name="dav">    4.09    4.09</time>
   <time name="total">    4.46    4.64</time>
   <energy>
    <i name="e_fr_energy">   -102.59554313 </i>
    <i name="e_wo_entrp">   -102.59554313 </i>
    <i name="e_0_energy">   -102.59554313 </i>
   </energy>
  </scstep>
  <scstep>
   <time name="dav">    4.09    4.09</time>
   <time name="total">    4.46    4.49</time>
   <energy>
    <i name="e_fr_energy">   -102.59598677 </i>
    <i name="e_wo_entrp">   -102.59598677 </i>
    <i name="e_0_energy">   -102.59598677 </i>
   </energy>
  </scstep>
  <scstep>
   <time name="dav">    4.12    4.12</time>
   <time name="total">    4.35    5.58</time>
   <energy>
    <i name="alphaZ">    155.48727474 </i>
    <i name="ewald"> 139550.86066826 </i>
    <i name="hartreedc">-187339.93395411 </i>
    <i name="XCdc">   -542.04990252 </i>
    <i name="pawpsdc">  52082.08638629 </i>
    <i name="pawaedc"> -49960.50858382 </i>
    <i name="eentropy">      0.00000000 </i>
    <i name="bandstr">  -3834.07220425 </i>
    <i name="atom">  49785.53424414 </i>
    <i name="e_fr_energy">   -102.59607125 </i>
    <i name="e_wo_entrp">   -102.59607125 </i>
    <i name="e_0_energy">   -102.59607125 </i>
   </energy>
  </scstep>
  <structure>
   <crystal>
    <varray name="basis" >
     <v>      23.27201213       0.00000000       0.00000000 </v>
     <v>       0.00000000      23.27201213       0.00000000 </v>
     <v>       0.00000000       0.00000000      23.27201213 </v>
    </varray>
    <i name="volume">  12603.80873157 </i>
    <varray name="rec_basis" >
     <v>       0.04297007       0.00000000       0.00000000 </v>
     <v>       0.00000000       0.04297007       0.00000000 </v>
     <v>       0.00000000       0.00000000       0.04297007 </v>
    </varray>
   </crystal>
   <varray name="positions" >
    <v>       0.42514159       0.35046458       0.60645884 </v>
    <v>       0.50984459       0.40051687       0.67981432 </v>
    <v>       0.39247650       0.58231126       0.68954892 </v>
    <v>       0.41072878       0.46267815       0.64929555 </v>
    <v>       0.64804283       0.40292282       0.64661936 </v>
    <v>       0.32035817       0.53503350       0.61152605 </v>
    <v>       0.49112300       0.52196754       0.71630671 </v>
    <v>       0.47478953       0.27694893       0.52730865 </v>
    <v>       0.40020308       0.35577714       0.48003519 </v>
    <v>       0.34167028       0.42504671       0.55901151 </v>
    <v>       0.46394853       0.66778769       0.64946918 </v>
    <v>       0.55311925       0.35831509       0.57565878 </v>
    <v>       0.46757413       0.44543965       0.54312269 </v>
    <v>       0.37106173       0.64358623       0.58090832 </v>
    <v>       0.59539109       0.46896782       0.73252509 </v>
    <v>       0.46416719       0.55803598       0.59454781 </v>
    <v>       0.26975826       0.61371726       0.52434699 </v>
    <v>       0.56194305       0.48791179       0.61719514 </v>
    <v>       0.64238575       0.35653685       0.42062482 </v>
    <v>       0.66495294       0.54331116       0.67132275 </v>
    <v>       0.52484101       0.35925054       0.45839738 </v>
    <v>       0.67027121       0.37789813       0.53448139 </v>
    <v>       0.33206021       0.44526666       0.43478650 </v>
    <v>       0.25506681       0.49455657       0.51636173 </v>
    <v>       0.37353433       0.53612638       0.50712537 </v>
    <v>       0.68772412       0.49354668       0.56849353 </v>
    <v>       0.58065654       0.46076002       0.50518715 </v>
    <v>       0.27730189       0.55757196       0.41788744 </v>
    <v>       0.45348013       0.45208145       0.42481288 </v>
    <v>       0.68887082       0.46517660       0.45231155 </v>
    <v>       0.56340969       0.60537118       0.66379590 </v>
    <v>       0.56868423       0.44586257       0.38469884 </v>
    <v>       0.49119000       0.55226265       0.47978869 </v>
    <v>       0.48864368       0.66025743       0.53456476 </v>
    <v>       0.39256304       0.55018735       0.38973922 </v>
    <v>       0.36451274       0.64536763       0.45724401 </v>
    <v>       0.59593146       0.57905891       0.55206008 </v>
    <v>       0.67596597       0.43051609       0.33555510 </v>
    <v>       0.60281047       0.55416241       0.42828466 </v>
    <v>       0.70454653       0.58047504       0.48911183 </v>
    <v>       0.50222047       0.54067345       0.35557636 </v>
    <v>       0.47133144       0.64954041       0.41197170 </v>
    <v>       0.58989029       0.66612253       0.47329257 </v>
    <v>       0.70820002       0.54568720       0.36973185 </v>
    <v>       0.60712881       0.52469083       0.30022638 </v>
    <v>       0.57121338       0.64396147       0.35109300 </v>
    <v>       0.68501024       0.66186556       0.40295126 </v>
    <v>       0.66921340       0.62634910       0.28917738 </v>
   </varray>
  </structure>
  <varray name="forces" >
   <v>       0.12033546      -0.00292079       0.01558251 </v>
   <v>      -0.00217144       0.06336288       0.09961471 </v>
   <v>      -0.06349771       0.00044302       0.10402804 </v>
   <v>      -0.21442112       0.02928547       0.42358581 </v>
   <v>      -0.16297997       0.18678919      -0.06185104 </v>
   <v>      -0.36210704      -0.08420561       0.01834114 </v>
   <v>      -0.03308840      -0.09085487      -0.07295695 </v>
   <v>       0.22773832      -0.16338843       0.06260761 </v>
   <v>       0.21564052       0.11408555      -0.07982091 </v>
   <v>      -0.01760707      -0.03409748       0.02720771 </v>
   <v>       0.09503514       0.19760928       0.29414664 </v>
   <v>       0.06480352       0.05287759       0.16391838 </v>
   <v>      -0.06253825      -0.10595612       0.19158314 </v>
   <v>      -0.02681429      -0.03204507       0.02216208 </v>
   <v>       0.06985707      -0.04662548       0.09139846 </v>
   <v>      -0.06178723       0.18022851       0.28866481 </v>
   <v>       0.11948973       0.00391224       0.08255642 </v>
   <v>       0.12759330      -0.26174958       0.52557839 </v>
   <v>      -0.07501701      -0.00716162       0.17131607 </v>
   <v>      -0.23123939      -0.14317931      -0.07568644 </v>
   <v>      -0.05909578      -0.00697197      -0.16315701 </v>
   <v>       0.00236935      -0.14399577       0.02414042 </v>
   <v>       0.07744921       0.11594545      -0.11378042 </v>
   <v>      -0.03027237      -0.12302521       0.22751435 </v>
   <v>      -0.02604595      -0.13290673       0.00463118 </v>
   <v>      -0.22878631      -0.26970891       0.04389205 </v>
   <v>      -0.08650910      -0.13607510      -0.20689196 </v>
   <v>       0.26043628       0.08951751      -0.01314979 </v>
   <v>      -0.13762891      -0.28178693      -0.37785559 </v>
   <v>       0.17958223      -0.33682837      -0.17342841 </v>
   <v>      -0.09233628      -0.03414698       0.10023119 </v>
   <v>      -0.05486777      -0.21868146       0.00378145 </v>
   <v>       0.29104653      -0.00165211      -0.14764301 </v>
   <v>      -0.14970014       0.15275276      -0.16859119 </v>
   <v>      -0.17367437       0.10663469      -0.17872839 </v>
   <v>      -0.14845880       0.21675023       0.13091482 </v>
   <v>       0.11967903       0.08783503      -0.05497543 </v>
   <v>       0.21529962       0.24386740      -0.08325708 </v>
   <v>       0.00194999       0.18250662      -0.00617282 </v>
   <v>      -0.14462409       0.09630053      -0.01163791 </v>
   <v>       0.16108835       0.26767026      -0.09862297 </v>
   <v>       0.12472691       0.13830145      -0.09973383 </v>
   <v>      -0.18946845       0.13791398      -0.28164420 </v>
   <v>       0.19773588       0.06417964      -0.34040295 </v>
   <v>       0.19311739       0.08209148       0.07517631 </v>
   <v>       0.08319137      -0.01865228      -0.02734324 </v>
   <v>      -0.16204051      -0.17170837      -0.15205090 </v>
   <v>       0.04861254       0.03746375      -0.20319123 </v>
  </varray>
  <varray name="stress" >
   <v>      -2.16687664      -0.31572900      -0.78261855 </v>
   <v>      -0.31572900      -1.51901610      -0.33840256 </v>
   <v>      -0.78261854      -0.33840256      -0.77461093 </v>
  </varray>
  <energy>
   <i name="e_fr_energy">   -102.59607125 </i>
   <i name="e_wo_entrp">   -102.59607125 </i>
   <i name="e_0_energy">      0.00000000 </i>
  </energy>
  <time name="totalsc">  121.10  135.09</time>
 </calculation>
 <calculation>
  <scstep>
   <time name="dav">    5.52    5.53</time>
   <time name="total">    5.89    5.90</time>
   <energy>
    <i name="alphaZ">    155.48727474 </i>
    <i name="ewald"> 139389.19979171 </i>
    <i name="hartreedc">-187178.98889413 </i>
    <i name="XCdc">   -542.16090176 </i>
    <i name="pawpsdc">  52082.07944820 </i>
    <i name="pawaedc"> -49960.50169921 </i>
    <i name="eentropy">      0.00000000 </i>
    <i name="bandstr">  -3833.33632520 </i>
    <i name="atom">  49785.53424414 </i>
    <i name="e_fr_energy">   -102.68706151 </i>
    <i name="e_wo_entrp">   -102.68706151 </i>
    <i name="e_0_energy">   -102.68706151 </i>
   </energy>
  </scstep>
  <scstep>
   <time name="dav">    5.59    5.59</time>
   <time name="total">    5.95    5.96</time>
   <energy>
    <i name="e_fr_energy">   -102.69805856 </i>
    <i name="e_wo_entrp">   -102.69805856 </i>
    <i name="e_0_energy">   -102.69805856 </i>
   </energy>
  </scstep>
  <scstep>
   <time name="dav">    5.80    5.80</time>
   <time name="total">    6.16    7.58</time>
   <energy>
    <i name="e_fr_energy">   -102.69803286 </i>
    <i name="e_wo_entrp">   -102.69803286 </i>
    <i name="e_0_energy">   -102.69803286 </i>
   </energy>
  </scstep>
  <scstep>
   <time name="dav">    5.68    5.69</time>
   <time name="total">    6.05    6.49</time>
   <energy>
    <i name="e_fr_energy">   -102.69792812 </i>
    <i name="e_wo_entrp">   -102.69792812 </i>
    <i name="e_0_energy">   -102.69792812 </i>
   </energy>
  </scstep>
  <scstep>
   <time name="dav">    4.96    4.96</time>
   <time name="total">    5.32    5.40</time>
   <energy>
    <i name="e_fr_energy">   -102.69755856 </i>
    <i name="e_wo_entrp">   -102.69755856 </i>
    <i name="e_0_energy">   -102.69755856 </i>
   </energy>
  </scstep>
  <scstep>
   <time name="dav">    4.49    4.50</time>
   <time name="total">    4.86    5.08</time>
   <energy>
    <i name="e_fr_energy">   -102.69721555 </i>
    <i name="e_wo_entrp">   -102.69721555 </i>
    <i name="e_0_energy">   -102.69721555 </i>
   </energy>
  </scstep>
  <scstep>
   <time name="dav">    4.32    4.33</time>
   <time name="total">    4.69    4.71</time>
   <energy>
    <i name="e_fr_energy">   -102.69702322 </i>
    <i name="e_wo_entrp">   -102.69702322 </i>
    <i name="e_0_energy">   -102.69702322 </i>
   </energy>
  </scstep>
  <scstep>
   <time name="dav">    4.04    4.04</time>
   <time name="total">    4.26    4.27</time>
   <energy>
    <i name="alphaZ">    155.48727474 </i>
    <i name="ewald"> 139389.19979171 </i>
    <i name="hartreedc">-187179.78610861 </i>
    <i name="XCdc">   -542.14420456 </i>
    <i name="pawpsdc">  52065.29122755 </i>
    <i name="pawaedc"> -49943.45860110 </i>
    <i name="eentropy">      0.00000000 </i>
    <i name="bandstr">  -3832.82060629 </i>
    <i name="atom">  49785.53424414 </i>
    <i name="e_fr_energy">   -102.69698242 </i>
    <i name="e_wo_entrp">   -102.69698242 </i>
    <i name="e_0_energy">   -102.69698242 </i>
   </energy>
  </scstep>
  <structure>
   <crystal>
    <varray name="basis" >
     <v>      23.27201213       0.00000000       0.00000000 </v>
     <v>       0.00000000      23.27201213       0.00000000 </v>
     <v>       0.00000000       0.00000000      23.27201213 </v>
    </varray>
    <i name="volume">  12603.80873157 </i>
    <varray name="rec_basis" >
     <v>       0.04297007       0.00000000       0.00000000 </v>
     <v>       0.00000000       0.04297007       0.00000000 </v>
     <v>       0.00000000       0.00000000       0.04297007 </v>
    </varray>
   </crystal>
   <varray name="positions" >
    <v>       0.42529581       0.35046107       0.60647615 </v>
    <v>       0.50985213       0.40060372       0.67994029 </v>
    <v>       0.39242282       0.58231550       0.68968612 </v>
    <v>       0.41046308       0.46271511       0.64984481 </v>
    <v>       0.64784159       0.40314299       0.64652012 </v>
    <v>       0.31988564       0.53491722       0.61153822 </v>
    <v>       0.49108108       0.52185515       0.71621194 </v>
    <v>       0.47507916       0.27673358       0.52738995 </v>
    <v>       0.40048034       0.35592532       0.47992602 </v>
    <v>       0.34164235       0.42501637       0.55904343 </v>
    <v>       0.46407199       0.66802904       0.64984376 </v>
    <v>       0.55321291       0.35837414       0.57588907 </v>
    <v>       0.46749632       0.44527710       0.54337810 </v>
    <v>       0.37102787       0.64355824       0.58092937 </v>
    <v>       0.59547667       0.46890725       0.73262500 </v>
    <v>       0.46405976       0.55828665       0.59493603 </v>
    <v>       0.26991999       0.61376719       0.52445347 </v>
    <v>       0.56210264       0.48755677       0.61791640 </v>
    <v>       0.64228380       0.35652344       0.42084869 </v>
    <v>       0.66464608       0.54313459       0.67123058 </v>
    <v>       0.52477267       0.35924406       0.45816861 </v>
    <v>       0.67028689       0.37769896       0.53454020 </v>
    <v>       0.33215707       0.44542790       0.43463658 </v>
    <v>       0.25505376       0.49437369       0.51664837 </v>
    <v>       0.37347382       0.53594554       0.50713464 </v>
    <v>       0.68741917       0.49319600       0.56856717 </v>
    <v>       0.58055264       0.46058312       0.50490417 </v>
    <v>       0.27765698       0.55768675       0.41785564 </v>
    <v>       0.45329013       0.45170353       0.42431971 </v>
    <v>       0.68908354       0.46471951       0.45208053 </v>
    <v>       0.56329605       0.60534044       0.66393780 </v>
    <v>       0.56861824       0.44554828       0.38472102 </v>
    <v>       0.49157874       0.55228168       0.47957211 </v>
    <v>       0.48845457       0.66044953       0.53435397 </v>
    <v>       0.39231670       0.55031548       0.38950845 </v>
    <v>       0.36428922       0.64564731       0.45741315 </v>
    <v>       0.59610111       0.57919575       0.55197844 </v>
    <v>       0.67623348       0.43082975       0.33544145 </v>
    <v>       0.60280925       0.55440393       0.42828519 </v>
    <v>       0.70436845       0.58061636       0.48910477 </v>
    <v>       0.50243479       0.54102997       0.35545002 </v>
    <v>       0.47150564       0.64971494       0.41183224 </v>
    <v>       0.58965752       0.66630163       0.47293995 </v>
    <v>       0.70844338       0.54578043       0.36927637 </v>
    <v>       0.60738136       0.52480475       0.30031217 </v>
    <v>       0.57131691       0.64393528       0.35105852 </v>
    <v>       0.68479773       0.66165639       0.40275590 </v>
    <v>       0.66926136       0.62639243       0.28893054 </v>
   </varray>
  </structure>
  <varray name="forces" >
   <v>       0.11011998      -0.00171263       0.01865162 </v>
   <v>      -0.02970347       0.03387527       0.11164028 </v>
   <v>      -0.08861037       0.00033661       0.08774160 </v>
   <v>      -0.21685115       0.01869222       0.38173385 </v>
   <v>      -0.13977744       0.15085870      -0.04082559 </v>
   <v>      -0.31803956      -0.05802334       0.03894732 </v>
   <v>      -0.03191351      -0.07957565      -0.04833867 </v>
   <v>       0.22032072      -0.13102083       0.05498282 </v>
   <v>       0.21006790       0.08937639      -0.06296899 </v>
   <v>       0.00924107      -0.03555167       0.03938036 </v>
   <v>       0.07106497       0.17844288       0.25893519 </v>
   <v>       0.04544730       0.04296106       0.12477424 </v>
   <v>      -0.05324602      -0.05192847       0.16537624 </v>
   <v>       0.00290344      -0.04297900       0.04270225 </v>
   <v>       0.06676916      -0.04971209       0.13435555 </v>
   <v>      -0.03385895       0.14671926       0.22540921 </v>
   <v>       0.08588422      -0.00479749       0.09454188 </v>
   <v>       0.11701998      -0.17973813       0.36511244 </v>
   <v>      -0.06584496      -0.00257363       0.13302475 </v>
   <v>      -0.21492764      -0.11996533      -0.07556060 </v>
   <v>      -0.05996666      -0.03867283      -0.12467972 </v>
   <v>       0.00507668      -0.14599195       0.01897419 </v>
   <v>       0.07270243       0.11376762      -0.10348754 </v>
   <v>      -0.03035345      -0.11029783       0.20925196 </v>
   <v>       0.00727435      -0.10391044       0.00255109 </v>
   <v>      -0.22752897      -0.24369923      -0.01271705 </v>
   <v>      -0.08411789      -0.11000530      -0.14062770 </v>
   <v>       0.23025576       0.08112026       0.00438413 </v>
   <v>      -0.11575654      -0.20330429      -0.34867809 </v>
   <v>       0.16733092      -0.25523002      -0.16647830 </v>
   <v>      -0.08625632      -0.03199300       0.08011190 </v>
   <v>      -0.04830902      -0.15145000      -0.03629044 </v>
   <v>       0.21715805      -0.02901154      -0.09528544 </v>
   <v>      -0.15621212       0.12639062      -0.13677253 </v>
   <v>      -0.09081809       0.09979138      -0.15416880 </v>
   <v>      -0.09196010       0.18720298       0.10583999 </v>
   <v>       0.08770397       0.05134408      -0.01570821 </v>
   <v>       0.19800400       0.21608990      -0.06397368 </v>
   <v>       0.03398659       0.13014875      -0.02315363 </v>
   <v>      -0.14616628       0.06172574      -0.01470872 </v>
   <v>       0.12962502       0.22050037      -0.07923519 </v>
   <v>       0.07489984       0.13140872      -0.07742197 </v>
   <v>      -0.19340232       0.12936966      -0.25459629 </v>
   <v>       0.18498581       0.04216106      -0.28559021 </v>
   <v>       0.16921620       0.07123503       0.08194708 </v>
   <v>       0.08708883      -0.01199102      -0.05885070 </v>
   <v>      -0.14250164      -0.17032570      -0.14862397 </v>
   <v>       0.06197523       0.03994281      -0.21162793 </v>
  </varray>
  <varray name="stress" >
   <v>      -2.20062829      -0.31466961      -0.76907967 </v>
   <v>      -0.31466961      -1.60399529      -0.31629724 </v>
   <v>      -0.76907967      -0.31629724      -0.87708835 </v>
  </varray>
  <energy>
   <i name="e_fr_energy">   -102.69698242 </i>
   <i name="e_wo_entrp">   -102.69698242 </i>
   <i name="e_0_energy">      0.00000000 </i>
  </energy>
  <time name="totalsc">   54.21   56.69</time>
 </calculation>
 <calculation>
  <scstep>
   <time name="dav">    5.47    5.47</time>
   <time name="total">    5.83    5.85</time>
   <energy>
    <i name="alphaZ">    155.48727474 </i>
    <i name="ewald"> 139068.20416305 </i>
    <i name="hartreedc">-186860.19250496 </i>
    <i name="XCdc">   -542.33899334 </i>
    <i name="pawpsdc">  52065.36761701 </i>
    <i name="pawaedc"> -49943.53613262 </i>
    <i name="eentropy">      0.00000000 </i>
    <i name="bandstr">  -3831.33044405 </i>
    <i name="atom">  49785.53424414 </i>
    <i name="e_fr_energy">   -102.80477605 </i>
    <i name="e_wo_entrp">   -102.80477605 </i>
    <i name="e_0_energy">   -102.80477605 </i>
   </energy>
  </scstep>
  <scstep>
   <time name="dav">    5.66    5.67</time>
   <time name="total">    6.03    9.36</time>
   <energy>
    <i name="e_fr_energy">   -102.84786988 </i>
    <i name="e_wo_entrp">   -102.84786988 </i>
    <i name="e_0_energy">   -102.84786988 </i>
   </energy>
  </scstep>
  <scstep>
   <time name="dav">    5.86    5.87</time>
   <time name="total">    6.23    7.53</time>
   <energy>
    <i name="e_fr_energy">   -102.84721817 </i>
    <i name="e_wo_entrp">   -102.84721817 </i>
    <i name="e_0_energy">   -102.84721817 </i>
   </energy>
  </scstep>
  <scstep>
   <time name="dav">    5.75    5.76</time>
   <time name="total">    6.11    7.03</time>
   <energy>
    <i name="e_fr_energy">   -102.84619483 </i>
    <i name="e_wo_entrp">   -102.84619483 </i>
    <i name="e_0_energy">   -102.84619483 </i>
   </energy>
  </scstep>
  <scstep>
   <time name="dav">    5.86    5.87</time>
   <time name="total">    6.23    6.35</time>
   <energy>
    <i name="e_fr_energy">   -102.84636123 </i>
    <i name="e_wo_entrp">   -102.84636123 </i>
    <i name="e_0_energy">   -102.84636123 </i>
   </energy>
  </scstep>
  <scstep>
   <time name="dav">    4.26    4.26</time>
   <time name="total">    4.62    4.63</time>
   <energy>
    <i name="e_fr_energy">   -102.84654385 </i>
    <i name="e_wo_entrp">   -102.84654385 </i>
    <i name="e_0_energy">   -102.84654385 </i>
   </energy>
  </scstep>
  <scstep>
   <time name="dav">    4.15    4.15</time>
   <time name="total">    4.52   12.58</time>
   <energy>
    <i name="e_fr_energy">   -102.84694871 </i>
    <i name="e_wo_entrp">   -102.84694871 </i>
    <i name="e_0_energy">   -102.84694871 </i>
   </energy>
  </scstep>
  <scstep>
   <time name="dav">    4.20    4.21</time>
   <time name="total">    4.57    6.88</time>
   <energy>
    <i name="e_fr_energy">   -102.84727571 </i>
    <i name="e_wo_entrp">   -102.84727571 </i>
    <i name="e_0_energy">   -102.84727571 </i>
   </energy>
  </scstep>
  <scstep>
   <time name="dav">    4.19    4.19</time>
   <time name="total">    4.56    4.96</time>
   <energy>
    <i name="e_fr_energy">   -102.84766325 </i>
    <i name="e_wo_entrp">   -102.84766325 </i>
    <i name="e_0_energy">   -102.84766325 </i>
   </energy>
  </scstep>
  <scstep>
   <time name="dav">    4.15    4.15</time>
   <time name="total">    4.51    4.54</time>
   <energy>
    <i name="e_fr_energy">   -102.84810597 </i>
    <i name="e_wo_entrp">   -102.84810597 </i>
    <i name="e_0_energy">   -102.84810597 </i>
   </energy>
  </scstep>
  <scstep>
   <time name="dav">    4.24    4.24</time>
   <time name="total">    4.60    4.61</time>
   <energy>
    <i name="e_fr_energy">   -102.84841980 </i>
    <i name="e_wo_entrp">   -102.84841980 </i>
    <i name="e_0_energy">   -102.84841980 </i>
   </energy>
  </scstep>
  <scstep>
   <time name="dav">    4.16    4.16</time>
   <time name="total">    4.53    7.11</time>
   <energy>
    <i name="e_fr_energy">   -102.84876784 </i>
    <i name="e_wo_entrp">   -102.84876784 </i>
    <i name="e_0_energy">   -102.84876784 </i>
   </energy>
  </scstep>
  <scstep>
   <time name="dav">    4.22    4.22</time>
   <time name="total">    4.58    5.27</time>
   <energy>
    <i name="e_fr_energy">   -102.84904722 </i>
    <i name="e_wo_entrp">   -102.84904722 </i>
    <i name="e_0_energy">   -102.84904722 </i>
   </energy>
  </scstep>
  <scstep>
   <time name="dav">    4.16    4.17</time>
   <time name="total">    4.53    4.54</time>
   <energy>
    <i name="e_fr_energy">   -102.84927444 </i>
    <i name="e_wo_entrp">   -102.84927444 </i>
    <i name="e_0_energy">   -102.84927444 </i>
   </energy>
  </scstep>
  <scstep>
   <time name="dav">    4.19    4.19</time>
   <time name="total">    4.56    5.07</time>
   <energy>
    <i name="e_fr_energy">   -102.84945481 </i>
    <i name="e_wo_entrp">   -102.84945481 </i>
    <i name="e_0_energy">   -102.84945481 </i>
   </energy>
  </scstep>
  <scstep>
   <time name="dav">    4.09    4.10</time>
   <time name="total">    4.32    4.34</time>
   <energy>
    <i name="alphaZ">    155.48727474 </i>
    <i name="ewald"> 139068.20416305 </i>
    <i name="hartreedc">-186862.31528194 </i>
    <i name="XCdc">   -542.30920348 </i>
    <i name="pawpsdc">  52036.71327300 </i>
    <i name="pawaedc"> -49914.43292286 </i>
    <i name="eentropy">      0.00000000 </i>
    <i name="bandstr">  -3829.73107790 </i>
    <i name="atom">  49785.53424414 </i>
    <i name="e_fr_energy">   -102.84953125 </i>
    <i name="e_wo_entrp">   -102.84953125 </i>
    <i name="e_0_energy">   -102.84953125 </i>
   </energy>
  </scstep>
  <structure>
   <crystal>
    <varray name="basis" >
     <v>      23.27201213       0.00000000       0.00000000 </v>
     <v>       0.00000000      23.27201213       0.00000000 </v>
     <v>       0.00000000       0.00000000      23.27201213 </v>
    </varray>
    <i name="volume">  12603.80873157 </i>
    <varray name="rec_basis" >
     <v>       0.04297007       0.00000000       0.00000000 </v>
     <v>       0.00000000       0.04297007       0.00000000 </v>
     <v>       0.00000000       0.00000000       0.04297007 </v>
    </varray>
   </crystal>
   <varray name="positions" >
    <v>       0.42560423       0.35045403       0.60651077 </v>
    <v>       0.50986720       0.40077744       0.68019224 </v>
    <v>       0.39231546       0.58232397       0.68996051 </v>
    <v>       0.40993169       0.46278903       0.65094333 </v>
    <v>       0.64743911       0.40358333       0.64632164 </v>
    <v>       0.31894057       0.53468465       0.61156256 </v>
    <v>       0.49099724       0.52163035       0.71602239 </v>
    <v>       0.47565842       0.27630290       0.52755254 </v>
    <v>       0.40103484       0.35622166       0.47970768 </v>
    <v>       0.34158648       0.42495569       0.55910728 </v>
    <v>       0.46431891       0.66851176       0.65059291 </v>
    <v>       0.55340023       0.35849223       0.57634964 </v>
    <v>       0.46734069       0.44495201       0.54388890 </v>
    <v>       0.37096014       0.64350224       0.58097147 </v>
    <v>       0.59564782       0.46878612       0.73282482 </v>
    <v>       0.46384492       0.55878797       0.59571247 </v>
    <v>       0.27024346       0.61386704       0.52466644 </v>
    <v>       0.56242180       0.48684675       0.61935891 </v>
    <v>       0.64207990       0.35649663       0.42129641 </v>
    <v>       0.66403237       0.54278147       0.67104626 </v>
    <v>       0.52463598       0.35923110       0.45771107 </v>
    <v>       0.67031825       0.37730062       0.53465782 </v>
    <v>       0.33235079       0.44575039       0.43433674 </v>
    <v>       0.25502767       0.49400792       0.51722165 </v>
    <v>       0.37335280       0.53558386       0.50715318 </v>
    <v>       0.68680926       0.49249464       0.56871445 </v>
    <v>       0.58034485       0.46022930       0.50433820 </v>
    <v>       0.27836717       0.55791632       0.41779202 </v>
    <v>       0.45291014       0.45094768       0.42333336 </v>
    <v>       0.68950898       0.46380533       0.45161849 </v>
    <v>       0.56306877       0.60527894       0.66422160 </v>
    <v>       0.56848627       0.44491972       0.38476537 </v>
    <v>       0.49235622       0.55231975       0.47913897 </v>
    <v>       0.48807635       0.66083374       0.53393240 </v>
    <v>       0.39182403       0.55057175       0.38904691 </v>
    <v>       0.36384218       0.64620665       0.45775142 </v>
    <v>       0.59644040       0.57946941       0.55181518 </v>
    <v>       0.67676849       0.43145707       0.33521413 </v>
    <v>       0.60280681       0.55488697       0.42828625 </v>
    <v>       0.70401231       0.58089899       0.48909064 </v>
    <v>       0.50286343       0.54174300       0.35519734 </v>
    <v>       0.47185405       0.65006400       0.41155331 </v>
    <v>       0.58919200       0.66665985       0.47223472 </v>
    <v>       0.70893008       0.54596690       0.36836542 </v>
    <v>       0.60788646       0.52503259       0.30048375 </v>
    <v>       0.57152397       0.64388291       0.35098957 </v>
    <v>       0.68437271       0.66123805       0.40236519 </v>
    <v>       0.66935727       0.62647910       0.28843688 </v>
   </varray>
  </structure>
  <varray name="forces" >
   <v>       0.08710078       0.00287023       0.01364953 </v>
   <v>      -0.08270185      -0.02662213       0.14033526 </v>
   <v>      -0.12725561       0.00248390       0.05418691 </v>
   <v>      -0.22649860       0.00173163       0.31151062 </v>
   <v>      -0.08505983       0.07456766      -0.00329106 </v>
   <v>      -0.23299003      -0.01798964       0.08319670 </v>
   <v>      -0.02553963      -0.05478903       0.00277413 </v>
   <v>       0.20102740      -0.06808289       0.04389374 </v>
   <v>       0.18656365       0.04343118      -0.02391810 </v>
   <v>       0.05792336      -0.05390497       0.06626342 </v>
   <v>       0.02311380       0.14278905       0.18648925 </v>
   <v>       0.02040151       0.02525374       0.05618111 </v>
   <v>      -0.03526421       0.04991709       0.12093320 </v>
   <v>       0.05664172      -0.05170764       0.08304669 </v>
   <v>       0.06495433      -0.05781093       0.23062795 </v>
   <v>       0.01831506       0.08416781       0.10337407 </v>
   <v>       0.03919557      -0.02600309       0.09406846 </v>
   <v>       0.08432985      -0.00630761       0.03758933 </v>
   <v>      -0.04526718      -0.00478775       0.06220337 </v>
   <v>      -0.15954603      -0.07769057      -0.08728996 </v>
   <v>      -0.07106499      -0.09418423      -0.04952855 </v>
   <v>       0.00373597      -0.15167957       0.02047625 </v>
   <v>       0.05333442       0.09892349      -0.08894096 </v>
   <v>      -0.05426635      -0.08632834       0.14801281 </v>
   <v>       0.07634908      -0.04392595       0.00149631 </v>
   <v>      -0.19458970      -0.18097695      -0.11317929 </v>
   <v>      -0.07324593      -0.05758345      -0.02047455 </v>
   <v>       0.14750460       0.05678693       0.05284994 </v>
   <v>      -0.07297478      -0.07004359      -0.29982971 </v>
   <v>       0.14676403      -0.09293144      -0.13550520 </v>
   <v>      -0.07152073      -0.02995257       0.04229241 </v>
   <v>      -0.02905754      -0.03083324      -0.10829782 </v>
   <v>       0.08532632      -0.07859115       0.00455693 </v>
   <v>      -0.17126816       0.08276103      -0.06821154 </v>
   <v>       0.06555146       0.09562295      -0.12092852 </v>
   <v>       0.01067233       0.13398424       0.05094757 </v>
   <v>       0.02708682      -0.01791171       0.05856570 </v>
   <v>       0.15321361       0.15461618      -0.03355396 </v>
   <v>       0.10469778       0.02676626      -0.05017478 </v>
   <v>      -0.13060589      -0.02756785      -0.01238210 </v>
   <v>       0.05189239       0.13497116      -0.04335645 </v>
   <v>      -0.01432599       0.12168395      -0.04174055 </v>
   <v>      -0.19703659       0.11620915      -0.21572648 </v>
   <v>       0.15827052       0.00006027      -0.16213739 </v>
   <v>       0.13211855       0.04908905       0.08714362 </v>
   <v>       0.09300409       0.02082430      -0.11520981 </v>
   <v>      -0.11134839      -0.15984831      -0.14064068 </v>
   <v>       0.06233898       0.04854334      -0.22234785 </v>
  </varray>
  <varray name="stress" >
   <v>      -2.22542913      -0.28825704      -0.74741952 </v>
   <v>      -0.28825704      -1.76541496      -0.27304100 </v>
   <v>      -0.74741953      -0.27304100      -1.04666021 </v>
  </varray>
  <energy>
   <i name="e_fr_energy">   -102.84953125 </i>
   <i name="e_wo_entrp">   -102.84953125 </i>
   <i name="e_0_energy">      0.00000000 </i>
  </energy>
  <time name="totalsc">   91.39  114.18</time>
 </calculation>
 <calculation>
  <scstep>
   <time name="dav">    5.47    5.47</time>
   <time name="total">    5.84    5.85</time>
   <energy>
    <i name="alphaZ">    155.48727474 </i>
    <i name="ewald"> 138435.36763206 </i>
    <i name="hartreedc">-186231.54230813 </i>
    <i name="XCdc">   -542.59658110 </i>
    <i name="pawpsdc">  52036.71141437 </i>
    <i name="pawaedc"> -49914.43110529 </i>
    <i name="eentropy">      0.00000000 </i>
    <i name="bandstr">  -3827.30319970 </i>
    <i name="atom">  49785.53424414 </i>
    <i name="e_fr_energy">   -102.77262890 </i>
    <i name="e_wo_entrp">   -102.77262890 </i>
    <i name="e_0_energy">   -102.77262890 </i>
   </energy>
  </scstep>
  <scstep>
   <time name="dav">    5.57    5.57</time>
   <time name="total">    5.93    5.94</time>
   <energy>
    <i name="e_fr_energy">   -102.94611027 </i>
    <i name="e_wo_entrp">   -102.94611027 </i>
    <i name="e_0_energy">   -102.94611027 </i>
   </energy>
  </scstep>
  <scstep>
   <time name="dav">    5.68    5.68</time>
   <time name="total">    6.04    7.56</time>
   <energy>
    <i name="e_fr_energy">   -102.94326632 </i>
    <i name="e_wo_entrp">   -102.94326632 </i>
    <i name="e_0_energy">   -102.94326632 </i>
   </energy>
  </scstep>
  <scstep>
   <time name="dav">    5.67    5.67</time>
   <time name="total">    6.04    6.31</time>
   <energy>
    <i name="e_fr_energy">   -102.93896952 </i>
    <i name="e_wo_entrp">   -102.93896952 </i>
    <i name="e_0_energy">   -102.93896952 </i>
   </energy>
  </scstep>
  <scstep>
   <time name="dav">    5.75    5.75</time>
   <time name="total">    6.11    6.17</time>
   <energy>
    <i name="e_fr_energy">   -102.93895093 </i>
    <i name="e_wo_entrp">   -102.93895093 </i>
    <i name="e_0_energy">   -102.93895093 </i>
   </energy>
  </scstep>
  <scstep>
   <time name="dav">    4.33    4.34</time>
   <time name="total">    4.56    4.58</time>
   <energy>
    <i name="alphaZ">    155.48727474 </i>
    <i name="ewald"> 138435.36763206 </i>
    <i name="hartreedc">-186234.42377247 </i>
    <i name="XCdc">   -542.55236462 </i>
    <i name="pawpsdc">  52006.44937971 </i>
    <i name="pawaedc"> -49883.57751580 </i>
    <i name="eentropy">      0.00000000 </i>
    <i name="bandstr">  -3825.22379282 </i>
    <i name="atom">  49785.53424414 </i>
    <i name="e_fr_energy">   -102.93891507 </i>
    <i name="e_wo_entrp">   -102.93891507 </i>
    <i name="e_0_energy">   -102.93891507 </i>
   </energy>
  </scstep>
  <structure>
   <crystal>
    <varray name="basis" >
[...]
       <r>     0.8211     0.0000   313.0000 </r>
       <r>     0.8622     0.0000   314.0000 </r>
       <r>     0.9033     0.0000   316.0000 </r>
       <r>     0.9444     0.0000   316.0000 </r>
       <r>     0.9855     0.0000   319.0000 </r>
       <r>     1.0266     0.0000   321.0000 </r>
       <r>     1.0677     0.0000   322.0000 </r>
       <r>     1.1088     0.0000   324.0000 </r>
       <r>     1.1499     0.0000   326.0000 </r>
       <r>     1.1910     0.0000   328.0000 </r>
       <r>     1.2322     0.0000   330.0000 </r>
       <r>     1.2733     0.0000   331.0000 </r>
       <r>     1.3144     0.0000   332.0000 </r>
       <r>     1.3555    24.3275   334.0000 </r>
       <r>     1.3966     0.0000   337.0000 </r>
       <r>     1.4377     0.0000   338.0000 </r>
       <r>     1.4788     0.0000   340.0000 </r>
       <r>     1.5199     0.0000   340.0000 </r>
       <r>     1.5610     0.0000   340.0000 </r>
       <r>     1.6021     0.0000   340.0000 </r>
       <r>     1.6432     0.0000   340.0000 </r>
       <r>     1.6843     0.0000   340.0000 </r>
       <r>     1.7254     0.0000   340.0000 </r>
       <r>     1.7665     0.0000   340.0000 </r>
       <r>     1.8076     0.0000   340.0000 </r>
       <r>     1.8487     0.0000   340.0000 </r>
       <r>     1.8898     0.0000   340.0000 </r>
       <r>     1.9310     0.0000   340.0000 </r>
       <r>     1.9721     0.0000   340.0000 </r>
       <r>     2.0132     0.0000   340.0000 </r>
      </set>
      <set comment="spin 2">
       <r>   -10.3185     0.0000     0.0000 </r>
       <r>   -10.2774     0.0000     0.0000 </r>
       <r>   -10.2363     0.0000     0.0000 </r>
       <r>   -10.1952     0.0000     0.0000 </r>
       <r>   -10.1541     0.0000     0.0000 </r>
       <r>   -10.1130     0.0000     0.0000 </r>
       <r>   -10.0719     0.0000     0.0000 </r>
       <r>   -10.0308     0.0000     0.0000 </r>
       <r>    -9.9897     0.0000     0.0000 </r>
       <r>    -9.9486     0.0000     0.0000 </r>
       <r>    -9.9075     0.0000     0.0000 </r>
       <r>    -9.8664     0.0000     0.0000 </r>
       <r>    -9.8253     0.0000     0.0000 </r>
       <r>    -9.7842     0.0000     0.0000 </r>
       <r>    -9.7431     0.0000     1.0000 </r>
       <r>    -9.7020     0.0000     1.0000 </r>
       <r>    -9.6609     0.0000     1.0000 </r>
       <r>    -9.6197     0.0000     1.0000 </r>
       <r>    -9.5786     0.0000     1.0000 </r>
       <r>    -9.5375     0.0000     1.0000 </r>
       <r>    -9.4964     0.0000     1.0000 </r>
       <r>    -9.4553     0.0000     1.0000 </r>
       <r>    -9.4142     0.0000     1.0000 </r>
       <r>    -9.3731     0.0000     1.0000 </r>
       <r>    -9.3320     0.0000     1.0000 </r>
       <r>    -9.2909     0.0000     1.0000 </r>
       <r>    -9.2498     0.0000     1.0000 </r>
       <r>    -9.2087     0.0000     2.0000 </r>
       <r>    -9.1676     0.0000     3.0000 </r>
       <r>    -9.1265     0.0000     4.0000 </r>
       <r>    -9.0854     0.0000     4.0000 </r>
       <r>    -9.0443     0.0000     5.0000 </r>
       <r>    -9.0032     0.0000     8.0000 </r>
       <r>    -8.9621     0.0000     9.0000 </r>
       <r>    -8.9209     0.0000     9.0000 </r>
       <r>    -8.8798     0.0000    12.0000 </r>
       <r>    -8.8387     0.0000    14.0000 </r>
       <r>    -8.7976     0.0000    16.0000 </r>
       <r>    -8.7565     0.0000    18.0000 </r>
       <r>    -8.7154     0.0000    20.0000 </r>
       <r>    -8.6743     0.0000    23.0000 </r>
       <r>    -8.6332     0.0000    26.0000 </r>
       <r>    -8.5921     0.0000    30.0000 </r>
       <r>    -8.5510     0.0000    32.0000 </r>
       <r>    -8.5099     0.0000    35.0000 </r>
       <r>    -8.4688     0.0000    38.0000 </r>
       <r>    -8.4277     0.0000    39.0000 </r>
       <r>    -8.3866     0.0000    42.0000 </r>
       <r>    -8.3455     0.0000    45.0000 </r>
       <r>    -8.3044     0.0000    48.0000 </r>
       <r>    -8.2633     0.0000    49.0000 </r>
       <r>    -8.2222     0.0000    53.0000 </r>
       <r>    -8.1810     0.0000    58.0000 </r>
       <r>    -8.1399     0.0000    60.0000 </r>
       <r>    -8.0988     0.0000    63.0000 </r>
       <r>    -8.0577     0.0002    66.0000 </r>
       <r>    -8.0166     0.0000    68.0000 </r>
       <r>    -7.9755     9.7039    72.3989 </r>
       <r>    -7.9344     0.0000    76.0000 </r>
       <r>    -7.8933     0.0000    77.0000 </r>
       <r>    -7.8522     0.0000    81.0000 </r>
       <r>    -7.8111     0.0000    84.0000 </r>
       <r>    -7.7700     0.0000    88.0000 </r>
       <r>    -7.7289     0.0000    91.0000 </r>
       <r>    -7.6878    19.5062    95.8018 </r>
       <r>    -7.6467     0.0000    99.0000 </r>
       <r>    -7.6056     0.0000   101.0000 </r>
       <r>    -7.5645     0.0000   104.0000 </r>
       <r>    -7.5234     0.0000   107.0000 </r>
       <r>    -7.4823     0.0000   111.0000 </r>
       <r>    -7.4411     0.0000   113.0000 </r>
       <r>    -7.4000    24.3275   117.0000 </r>
       <r>    -7.3589     0.0000   118.0000 </r>
       <r>    -7.3178     0.0000   121.0000 </r>
       <r>    -7.2767     0.0000   125.0000 </r>
       <r>    -7.2356     0.0000   128.0000 </r>
       <r>    -7.1945     0.0000   132.0000 </r>
       <r>    -7.1534    22.7628   135.9357 </r>
       <r>    -7.1123     0.0000   139.0000 </r>
       <r>    -7.0712     0.0000   141.0000 </r>
       <r>    -7.0301     0.0000   144.0000 </r>
       <r>    -6.9890     0.0000   148.0000 </r>
       <r>    -6.9479     0.0000   152.0000 </r>
       <r>    -6.9068     0.0001   155.0000 </r>
       <r>    -6.8657     0.0000   161.0000 </r>
       <r>    -6.8246     0.0000   164.0000 </r>
       <r>    -6.7835     0.0000   170.0000 </r>
       <r>    -6.7423     0.0001   175.0000 </r>
       <r>    -6.7012     0.0000   179.0000 </r>
       <r>    -6.6601     0.0000   185.0000 </r>
       <r>    -6.6190     0.0000   190.0000 </r>
       <r>    -6.5779     0.0000   195.0000 </r>
       <r>    -6.5368     0.0000   199.0000 </r>
       <r>    -6.4957     0.0000   204.0000 </r>
       <r>    -6.4546     0.0000   208.0000 </r>
       <r>    -6.4135     0.0000   214.0000 </r>
       <r>    -6.3724     0.0000   217.0000 </r>
       <r>    -6.3313     0.0000   221.0000 </r>
       <r>    -6.2902     0.0000   226.0000 </r>
       <r>    -6.2491     0.0000   231.0000 </r>
       <r>    -6.2080     0.0000   234.0000 </r>
       <r>    -6.1669     0.0000   237.0000 </r>
       <r>    -6.1258     0.0000   241.0000 </r>
       <r>    -6.0847     0.0000   243.0000 </r>
       <r>    -6.0436     0.0000   244.0000 </r>
       <r>    -6.0024     0.0000   246.0000 </r>
       <r>    -5.9613     0.0000   247.0000 </r>
       <r>    -5.9202     0.0000   247.0000 </r>
       <r>    -5.8791     0.0000   247.0000 </r>
       <r>    -5.8380     0.0000   247.0000 </r>
       <r>    -5.7969     0.0000   248.0000 </r>
       <r>    -5.7558     0.0000   248.0000 </r>
       <r>    -5.7147     0.0000   249.0000 </r>
       <r>    -5.6736     0.0000   249.0000 </r>
       <r>    -5.6325     0.0000   249.0000 </r>
       <r>    -5.5914     0.0000   249.0000 </r>
       <r>    -5.5503     0.0000   249.0000 </r>
       <r>    -5.5092     0.0000   249.0000 </r>
       <r>    -5.4681     0.0000   249.0000 </r>
       <r>    -5.4270     0.0000   250.0000 </r>
       <r>    -5.3859     0.0000   250.0000 </r>
       <r>    -5.3448     0.0000   250.0000 </r>
       <r>    -5.3036     0.0000   250.0000 </r>
       <r>    -5.2625     0.0000   250.0000 </r>
       <r>    -5.2214     0.0000   251.0000 </r>
       <r>    -5.1803     0.0000   251.0000 </r>
       <r>    -5.1392     0.0000   251.0000 </r>
       <r>    -5.0981     0.0000   251.0000 </r>
       <r>    -5.0570     0.0000   252.0000 </r>
       <r>    -5.0159     0.0000   252.0000 </r>
       <r>    -4.9748     0.0000   252.0000 </r>
       <r>    -4.9337     0.0000   253.0000 </r>
       <r>    -4.8926     0.0000   253.0000 </r>
       <r>    -4.8515     0.0000   253.0000 </r>
       <r>    -4.8104     0.0000   254.0000 </r>
       <r>    -4.7693     0.0000   255.0000 </r>
       <r>    -4.7282     0.0000   255.0000 </r>
       <r>    -4.6871     0.0000   255.0000 </r>
       <r>    -4.6460     0.0000   255.0000 </r>
       <r>    -4.6049     0.0000   255.0000 </r>
       <r>    -4.5637     0.0000   256.0000 </r>
       <r>    -4.5226     0.0000   256.0000 </r>
       <r>    -4.4815     0.0000   256.0000 </r>
       <r>    -4.4404     0.0000   256.0000 </r>
       <r>    -4.3993     0.0000   257.0000 </r>
       <r>    -4.3582     0.0000   257.0000 </r>
       <r>    -4.3171     0.0000   257.0000 </r>
       <r>    -4.2760     0.0000   257.0000 </r>
       <r>    -4.2349     0.0000   257.0000 </r>
       <r>    -4.1938     0.0000   257.0000 </r>
       <r>    -4.1527     0.0000   257.0000 </r>
       <r>    -4.1116     0.0000   257.0000 </r>
       <r>    -4.0705     0.0000   257.0000 </r>
       <r>    -4.0294     0.0000   257.0000 </r>
       <r>    -3.9883     0.0000   258.0000 </r>
       <r>    -3.9472     0.0000   258.0000 </r>
       <r>    -3.9061     0.0000   258.0000 </r>
       <r>    -3.8650     0.0000   258.0000 </r>
       <r>    -3.8238     0.0000   259.0000 </r>
       <r>    -3.7827     0.0000   260.0000 </r>
       <r>    -3.7416     0.0000   260.0000 </r>
       <r>    -3.7005     0.0000   260.0000 </r>
       <r>    -3.6594     0.0000   261.0000 </r>
       <r>    -3.6183     0.0000   261.0000 </r>
       <r>    -3.5772     0.0000   262.0000 </r>
       <r>    -3.5361     0.0000   262.0000 </r>
       <r>    -3.4950     0.0000   262.0000 </r>
       <r>    -3.4539     0.0000   262.0000 </r>
       <r>    -3.4128     0.0000   262.0000 </r>
       <r>    -3.3717     0.0000   264.0000 </r>
       <r>    -3.3306     0.0000   264.0000 </r>
       <r>    -3.2895     0.0000   264.0000 </r>
       <r>    -3.2484     0.0000   264.0000 </r>
       <r>    -3.2073     0.0000   264.0000 </r>
       <r>    -3.1662     0.0000   264.0000 </r>
       <r>    -3.1250     0.0000   265.0000 </r>
       <r>    -3.0839     0.0000   265.0000 </r>
       <r>    -3.0428     0.0000   265.0000 </r>
       <r>    -3.0017     0.0000   266.0000 </r>
       <r>    -2.9606     0.0000   266.0000 </r>
       <r>    -2.9195     0.0000   267.0000 </r>
       <r>    -2.8784     0.0000   267.0000 </r>
       <r>    -2.8373     0.0000   267.0000 </r>
       <r>    -2.7962     0.0000   268.0000 </r>
       <r>    -2.7551     0.0000   268.0000 </r>
       <r>    -2.7140     0.0000   269.0000 </r>
       <r>    -2.6729     0.0000   269.0000 </r>
       <r>    -2.6318     0.0000   269.0000 </r>
       <r>    -2.5907     0.0000   270.0000 </r>
       <r>    -2.5496     0.0000   270.0000 </r>
       <r>    -2.5085     0.0000   270.0000 </r>
       <r>    -2.4674     0.0000   271.0000 </r>
       <r>    -2.4263     0.0000   272.0000 </r>
       <r>    -2.3851     0.0000   272.0000 </r>
       <r>    -2.3440     0.0000   272.0000 </r>
       <r>    -2.3029     0.0000   272.0000 </r>
       <r>    -2.2618     0.0000   273.0000 </r>
       <r>    -2.2207     0.0000   273.0000 </r>
       <r>    -2.1796     0.0000   273.0000 </r>
       <r>    -2.1385     0.0000   273.0000 </r>
       <r>    -2.0974     0.0000   275.0000 </r>
       <r>    -2.0563     0.0000   275.0000 </r>
       <r>    -2.0152     0.0000   275.0000 </r>
       <r>    -1.9741     0.0000   276.0000 </r>
       <r>    -1.9330     0.0000   277.0000 </r>
       <r>    -1.8919     0.0000   277.0000 </r>
       <r>    -1.8508     0.0000   278.0000 </r>
       <r>    -1.8097     0.0000   278.0000 </r>
       <r>    -1.7686     0.0000   278.0000 </r>
       <r>    -1.7275     0.0000   279.0000 </r>
       <r>    -1.6863     0.0000   279.0000 </r>
       <r>    -1.6452     0.0000   280.0000 </r>
       <r>    -1.6041     0.0000   280.0000 </r>
       <r>    -1.5630     0.0000   281.0000 </r>
       <r>    -1.5219     0.0000   281.0000 </r>
       <r>    -1.4808     0.0000   283.0000 </r>
       <r>    -1.4397     0.0000   283.0000 </r>
       <r>    -1.3986     0.0000   284.0000 </r>
       <r>    -1.3575     0.0000   284.0000 </r>
       <r>    -1.3164     0.0000   284.0000 </r>
       <r>    -1.2753     0.0000   284.0000 </r>
       <r>    -1.2342     0.0000   285.0000 </r>
       <r>    -1.1931     0.0000   286.0000 </r>
       <r>    -1.1520     0.0000   286.0000 </r>
       <r>    -1.1109    24.3275   287.0000 </r>
       <r>    -1.0698     0.0000   287.0000 </r>
       <r>    -1.0287     0.0000   288.0000 </r>
       <r>    -0.9876     0.0000   288.0000 </r>
       <r>    -0.9464     0.0000   288.0000 </r>
       <r>    -0.9053     0.0000   288.0000 </r>
       <r>    -0.8642     0.0000   288.0000 </r>
       <r>    -0.8231     0.0000   288.0000 </r>
       <r>    -0.7820     0.0000   290.0000 </r>
       <r>    -0.7409     0.0000   291.0000 </r>
       <r>    -0.6998     0.0000   291.0000 </r>
       <r>    -0.6587     0.0003   291.0000 </r>
       <r>    -0.6176     0.0000   292.0000 </r>
       <r>    -0.5765     0.0000   293.0000 </r>
       <r>    -0.5354     0.0000   293.0000 </r>
       <r>    -0.4943     0.0000   294.0000 </r>
       <r>    -0.4532     0.0000   295.0000 </r>
       <r>    -0.4121     0.0000   295.0000 </r>
       <r>    -0.3710     0.0000   296.0000 </r>
       <r>    -0.3299     0.0000   297.0000 </r>
       <r>    -0.2888     0.0000   297.0000 </r>
       <r>    -0.2477     0.0000   298.0000 </r>
       <r>    -0.2065     0.0000   299.0000 </r>
       <r>    -0.1654     0.0000   299.0000 </r>
       <r>    -0.1243     0.0000   299.0000 </r>
       <r>    -0.0832     0.0000   299.0000 </r>
       <r>    -0.0421     0.0000   300.0000 </r>
       <r>    -0.0010     0.0000   300.0000 </r>
       <r>     0.0401     0.0000   302.0000 </r>
       <r>     0.0812     0.0000   302.0000 </r>
       <r>     0.1223     0.0000   302.0000 </r>
       <r>     0.1634     0.0000   302.0000 </r>
       <r>     0.2045     0.0000   302.0000 </r>
       <r>     0.2456     0.0000   303.0000 </r>
       <r>     0.2867     0.0000   303.0000 </r>
       <r>     0.3278     0.0000   304.0000 </r>
       <r>     0.3689     0.0000   305.0000 </r>
       <r>     0.4100     0.0000   306.0000 </r>
       <r>     0.4511     0.0000   306.0000 </r>
       <r>     0.4923     0.0000   307.0000 </r>
       <r>     0.5334     0.0000   308.0000 </r>
       <r>     0.5745     0.0000   308.0000 </r>
       <r>     0.6156     0.0000   309.0000 </r>
       <r>     0.6567     0.0000   309.0000 </r>
       <r>     0.6978     0.0000   310.0000 </r>
       <r>     0.7389     0.0000   311.0000 </r>
       <r>     0.7800     0.0000   312.0000 </r>
       <r>     0.8211     0.0000   313.0000 </r>
       <r>     0.8622     0.0000   314.0000 </r>
       <r>     0.9033     0.0000   316.0000 </r>
       <r>     0.9444     0.0000   316.0000 </r>
       <r>     0.9855     0.0000   319.0000 </r>
       <r>     1.0266     0.0000   321.0000 </r>
       <r>     1.0677     0.0000   322.0000 </r>
       <r>     1.1088     0.0000   324.0000 </r>
       <r>     1.1499     0.0000   326.0000 </r>
       <r>     1.1910     0.0000   328.0000 </r>
       <r>     1.2322     0.0000   330.0000 </r>
       <r>     1.2733     0.0000   331.0000 </r>
       <r>     1.3144     0.0000   332.0000 </r>
       <r>     1.3555    24.3275   334.0000 </r>
       <r>     1.3966     0.0000   337.0000 </r>
       <r>     1.4377     0.0000   338.0000 </r>
       <r>     1.4788     0.0000   340.0000 </r>
       <r>     1.5199     0.0000   340.0000 </r>
       <r>     1.5610     0.0000   340.0000 </r>
       <r>     1.6021     0.0000   340.0000 </r>
       <r>     1.6432     0.0000   340.0000 </r>
       <r>     1.6843     0.0000   340.0000 </r>
       <r>     1.7254     0.0000   340.0000 </r>
       <r>     1.7665     0.0000   340.0000 </r>
       <r>     1.8076     0.0000   340.0000 </r>
       <r>     1.8487     0.0000   340.0000 </r>
       <r>     1.8898     0.0000   340.0000 </r>
       <r>     1.9310     0.0000   340.0000 </r>
       <r>     1.9721     0.0000   340.0000 </r>
       <r>     2.0132     0.0000   340.0000 </r>
      </set>
     </set>
    </array>
   </total>
  </dos>
 </calculation>
 <structure name="finalpos" >
  <crystal>
   <varray name="basis" >
    <v>      23.27201213       0.00000000       0.00000000 </v>
    <v>       0.00000000      23.27201213       0.00000000 </v>
    <v>       0.00000000       0.00000000      23.27201213 </v>
   </varray>
   <i name="volume">  12603.80873157 </i>
   <varray name="rec_basis" >
    <v>       0.04297007       0.00000000       0.00000000 </v>
    <v>       0.00000000       0.04297007       0.00000000 </v>
    <v>       0.00000000       0.00000000       0.04297007 </v>
   </varray>
  </crystal>
  <varray name="positions" >
   <v>       0.42423010       0.34814625       0.60943160 </v>
   <v>       0.50067194       0.40245622       0.68732471 </v>
   <v>       0.38027451       0.57907472       0.70124192 </v>
   <v>       0.39954771       0.46286642       0.66041324 </v>
   <v>       0.63107175       0.40398041       0.64215502 </v>
   <v>       0.30326147       0.52995896       0.62525087 </v>
   <v>       0.48450262       0.52233792       0.71980118 </v>
   <v>       0.48941253       0.27209212       0.53148856 </v>
   <v>       0.42269554       0.35893071       0.48459732 </v>
   <v>       0.33989766       0.42139070       0.56544779 </v>
   <v>       0.45793823       0.66788103       0.66736368 </v>
   <v>       0.53662828       0.37022751       0.57408044 </v>
   <v>       0.45416434       0.45824865       0.54634612 </v>
   <v>       0.36633123       0.64287951       0.59593868 </v>
   <v>       0.58848287       0.46794481       0.73775987 </v>
   <v>       0.45816766       0.56466221       0.60392658 </v>
   <v>       0.26594354       0.61117341       0.54351616 </v>
   <v>       0.55200577       0.48781848       0.61736269 </v>
   <v>       0.65761925       0.35223708       0.40310452 </v>
   <v>       0.65372563       0.53386586       0.66390729 </v>
   <v>       0.54117739       0.35268982       0.45017838 </v>
   <v>       0.64439808       0.37529039       0.51899508 </v>
   <v>       0.35232515       0.45142242       0.44532423 </v>
   <v>       0.25573501       0.49195275       0.52136237 </v>
   <v>       0.36870884       0.54156338       0.52332532 </v>
   <v>       0.66969080       0.48748815       0.55733646 </v>
   <v>       0.56564358       0.46604655       0.49433056 </v>
   <v>       0.29235657       0.56618948       0.43240167 </v>
   <v>       0.46826620       0.44676959       0.41405328 </v>
   <v>       0.69049336       0.46056905       0.44325774 </v>
   <v>       0.55759517       0.60361330       0.66309008 </v>
   <v>       0.58337795       0.44206173       0.37302342 </v>
   <v>       0.48829777       0.55864449       0.47913715 </v>
   <v>       0.48047859       0.66455470       0.53736919 </v>
   <v>       0.40206227       0.54926005       0.39242760 </v>
   <v>       0.37951676       0.64697970       0.46936235 </v>
   <v>       0.58921926       0.58274012       0.54722902 </v>
   <v>       0.69727496       0.43613600       0.32585000 </v>
   <v>       0.60412126       0.55617625       0.42433025 </v>
   <v>       0.70666723       0.57542601       0.48520930 </v>
   <v>       0.51107285       0.53801698       0.34693509 </v>
   <v>       0.47611222       0.64768226       0.39799488 </v>
   <v>       0.57596394       0.66650833       0.46089846 </v>
   <v>       0.72582475       0.54694671       0.36648990 </v>
   <v>       0.62328497       0.53042026       0.30160650 </v>
   <v>       0.57889485       0.64018091       0.33373999 </v>
   <v>       0.67912828       0.65298460       0.39823265 </v>
   <v>       0.69069252       0.62543685       0.28040604 </v>
  </varray>
 </structure>
</modeling>
