   16   16 1000    2
  0.4382817E+03  0.1914070E-08  0.1914070E-08  0.1914070E-08  0.1000000E-15
  1.000000000000000E-004
  CAR 
 unknown system                          
    176      1    116
 
  0.0000000E+00  0.0000000E+00  0.0000000E+00  0.1000000E+01
    1       -9.191811     -9.191811
    2       -8.951801     -8.951801
    3       -8.850969     -8.850969
    4       -8.830242     -8.830242
    5       -8.783723     -8.783723
    6       -8.745582     -8.745582
    7       -8.732402     -8.732402
    8       -8.663497     -8.663497
    9       -8.641841     -8.641840
   10       -8.612253     -8.612253
   11       -8.556075     -8.556075
   12       -8.502097     -8.502097
   13       -8.399608     -8.399608
   14       -8.357601     -8.357601
   15       -8.285055     -8.285055
   16       -8.272465     -8.272465
   17       -8.263834     -8.263834
   18       -8.227850     -8.227850
   19       -8.148646     -8.148646
   20       -8.125548     -8.125548
   21       -8.090453     -8.090453
   22       -8.057263     -8.057263
   23       -8.004781     -8.004781
   24       -7.978114     -7.978114
   25       -7.955125     -7.955125
   26       -7.911212     -7.911212
   27       -7.855364     -7.855364
   28       -7.827924     -7.827924
   29       -7.792927     -7.792927
   30       -7.744835     -7.744835
   31       -7.681306     -7.681306
   32       -7.659057     -7.659057
   33       -7.599700     -7.599700
   34       -7.572983     -7.572983
   35       -7.535335     -7.535335
   36       -7.510446     -7.510446
   37       -7.457832     -7.457832
   38       -7.444365     -7.444365
   39       -7.380534     -7.380534
   40       -7.335712     -7.335711
   41       -7.315976     -7.315976
   42       -7.282186     -7.282186
   43       -7.266968     -7.266968
   44       -7.181792     -7.181792
   45       -7.158400     -7.158400
   46       -7.133344     -7.133344
   47       -7.099569     -7.099569
   48       -7.082376     -7.082376
   49       -7.072709     -7.072709
   50       -7.052265     -7.052265
   51       -7.001807     -7.001807
   52       -6.983437     -6.983437
   53       -6.959936     -6.959936
   54       -6.934933     -6.934933
   55       -6.920258     -6.920258
   56       -6.908846     -6.908846
   57       -6.887555     -6.887555
   58       -6.857983     -6.857983
   59       -6.840565     -6.840565
   60       -6.827096     -6.827096
   61       -6.808623     -6.808623
   62       -6.783500     -6.783500
   63       -6.755924     -6.755924
   64       -6.738373     -6.738373
   65       -6.716198     -6.716198
   66       -6.700452     -6.700452
   67       -6.677511     -6.677511
   68       -6.639715     -6.639715
   69       -6.616973     -6.616973
   70       -6.602696     -6.602696
   71       -6.572512     -6.572512
   72       -6.534224     -6.534224
   73       -6.500238     -6.500238
   74       -6.485124     -6.485124
   75       -6.438384     -6.438384
   76       -6.414568     -6.414568
   77       -6.371986     -6.371986
   78       -6.360648     -6.360648
   79       -6.314506     -6.314506
   80       -6.293194     -6.293194
   81       -6.275976     -6.275976
   82       -6.247341     -6.247341
   83       -5.899007     -5.899007
   84       -5.261384     -5.261385
   85       -4.588637     -4.588637
   86       -4.469696     -4.469696
   87       -4.351725     -4.351725
   88       -3.788571     -3.788571
   89       -3.073724     -3.073725
   90       -2.790415     -2.790415
   91       -2.565538     -2.565539
   92       -2.327361     -2.327361
   93       -2.256525     -2.256525
   94       -2.041356     -2.041356
   95       -1.834478     -1.834479
   96       -1.763775     -1.763776
   97       -1.358726     -1.358728
   98       -1.034708     -1.034710
   99       -0.873531     -0.873533
  100       -0.586522     -0.586525
  101       -0.518296     -0.518298
  102       -0.473730     -0.473736
  103       -0.414851     -0.414857
  104       -0.291927     -0.291932
  105       -0.220902     -0.220907
  106        0.124404      0.124392
  107        0.202287      0.202266
  108        0.342824      0.342758
  109        0.459472      0.459385
  110        0.567011      0.566952
  111        0.676899      0.676818
  112        0.709906      0.709810
  113        0.747494      0.747419
  114        0.782907      0.782776
  115        0.817913      0.817770
  116        0.904740      0.904678
