  14  14   0   0
  0.5094993E+03  0.1924970E-08  0.1924970E-08  0.1924970E-08  0.1000000E-15
  1.000000000000000E-004
  CAR 
 unknown system                          
      1.26390365    -10.15810689  301     -3.94262949      1.00000000
    -10.158  0.0000E+00  0.0000E+00  0.0000E+00  0.0000E+00
    -10.120  0.0000E+00  0.0000E+00  0.0000E+00  0.0000E+00
    -10.082  0.0000E+00  0.0000E+00  0.0000E+00  0.0000E+00
    -10.044  0.0000E+00  0.0000E+00  0.0000E+00  0.0000E+00
    -10.006  0.0000E+00  0.0000E+00  0.0000E+00  0.0000E+00
     -9.968  0.0000E+00  0.0000E+00  0.0000E+00  0.0000E+00
     -9.930  0.0000E+00  0.0000E+00  0.0000E+00  0.0000E+00
     -9.892  0.0000E+00  0.0000E+00  0.0000E+00  0.0000E+00
     -9.854  0.0000E+00  0.0000E+00  0.0000E+00  0.0000E+00
     -9.815  0.0000E+00  0.0000E+00  0.0000E+00  0.0000E+00
     -9.777  0.0000E+00  0.0000E+00  0.0000E+00  0.0000E+00
     -9.739  0.0000E+00  0.0000E+00  0.0000E+00  0.0000E+00
     -9.701  0.0000E+00  0.0000E+00  0.0000E+00  0.0000E+00
     -9.663  0.0000E+00  0.0000E+00  0.0000E+00  0.0000E+00
     -9.625  0.0000E+00  0.0000E+00  0.1000E-02  0.1000E-02
     -9.587  0.0000E+00  0.0000E+00  0.1000E-02  0.1000E-02
     -9.549  0.0000E+00  0.0000E+00  0.1000E-02  0.1000E-02
     -9.511  0.0000E+00  0.0000E+00  0.1000E-02  0.1000E-02
     -9.473  0.0000E+00  0.0000E+00  0.1000E-02  0.1000E-02
     -9.435  0.0000E+00  0.0000E+00  0.1000E-02  0.1000E-02
     -9.397  0.0000E+00  0.0000E+00  0.1000E-02  0.1000E-02
     -9.359  0.0000E+00  0.0000E+00  0.1000E-02  0.1000E-02
     -9.320  0.0000E+00  0.0000E+00  0.1000E-02  0.1000E-02
     -9.282  0.0000E+00  0.0000E+00  0.1000E-02  0.1000E-02
     -9.244  0.0000E+00  0.0000E+00  0.1000E-02  0.1000E-02
     -9.206  0.0000E+00  0.0000E+00  0.1000E-02  0.1000E-02
     -9.168  0.0000E+00  0.0000E+00  0.3000E-02  0.3000E-02
     -9.130  0.0000E+00  0.0000E+00  0.4000E-02  0.4000E-02
     -9.092  0.0000E+00  0.0000E+00  0.4000E-02  0.4000E-02
     -9.054  0.0000E+00  0.0000E+00  0.4000E-02  0.4000E-02
     -9.016  0.0000E+00  0.0000E+00  0.4000E-02  0.4000E-02
     -8.978  0.0000E+00  0.0000E+00  0.4000E-02  0.4000E-02
     -8.940  0.0000E+00  0.0000E+00  0.6000E-02  0.6000E-02
     -8.902  0.0000E+00  0.0000E+00  0.6000E-02  0.6000E-02
     -8.864  0.0000E+00  0.0000E+00  0.6000E-02  0.6000E-02
     -8.826  0.0000E+00  0.0000E+00  0.6000E-02  0.6000E-02
     -8.787  0.0000E+00  0.0000E+00  0.6000E-02  0.6000E-02
     -8.749  0.0000E+00  0.0000E+00  0.6000E-02  0.6000E-02
     -8.711  0.0000E+00  0.0000E+00  0.6000E-02  0.6000E-02
     -8.673  0.0000E+00  0.0000E+00  0.6000E-02  0.6000E-02
     -8.635  0.0000E+00  0.0000E+00  0.6000E-02  0.6000E-02
     -8.597  0.0000E+00  0.0000E+00  0.6000E-02  0.6000E-02
     -8.559  0.0000E+00  0.0000E+00  0.7000E-02  0.7000E-02
     -8.521  0.0000E+00  0.0000E+00  0.7000E-02  0.7000E-02
     -8.483  0.0000E+00  0.0000E+00  0.8000E-02  0.8000E-02
     -8.445  0.0000E+00  0.0000E+00  0.9000E-02  0.9000E-02
     -8.407  0.0000E+00  0.0000E+00  0.9000E-02  0.9000E-02
     -8.369  0.0000E+00  0.0000E+00  0.1100E-01  0.1100E-01
     -8.331  0.0000E+00  0.0000E+00  0.1100E-01  0.1100E-01
     -8.293  0.0000E+00  0.0000E+00  0.1400E-01  0.1400E-01
     -8.254  0.0000E+00  0.0000E+00  0.1600E-01  0.1600E-01
     -8.216  0.0000E+00  0.0000E+00  0.1600E-01  0.1600E-01
     -8.178  0.0000E+00  0.0000E+00  0.1700E-01  0.1700E-01
     -8.140  0.0000E+00  0.0000E+00  0.1800E-01  0.1800E-01
     -8.102  0.0000E+00  0.0000E+00  0.1900E-01  0.1900E-01
     -8.064  0.0000E+00  0.0000E+00  0.2000E-01  0.2000E-01
     -8.026  0.0000E+00  0.0000E+00  0.2100E-01  0.2100E-01
     -7.988  0.0000E+00  0.0000E+00  0.2300E-01  0.2300E-01
     -7.950  0.0000E+00  0.0000E+00  0.2400E-01  0.2400E-01
     -7.912  0.0000E+00  0.0000E+00  0.2600E-01  0.2600E-01
     -7.874  0.0000E+00  0.0000E+00  0.2700E-01  0.2700E-01
     -7.836  0.0000E+00  0.0000E+00  0.2700E-01  0.2700E-01
     -7.798  0.0000E+00  0.0000E+00  0.2800E-01  0.2800E-01
     -7.759  0.2627E-01  0.2627E-01  0.3000E-01  0.3000E-01
     -7.721  0.0000E+00  0.0000E+00  0.3000E-01  0.3000E-01
     -7.683  0.0000E+00  0.0000E+00  0.3100E-01  0.3100E-01
     -7.645  0.0000E+00  0.0000E+00  0.3200E-01  0.3200E-01
     -7.607  0.0000E+00  0.0000E+00  0.3300E-01  0.3300E-01
     -7.569  0.0000E+00  0.0000E+00  0.3400E-01  0.3400E-01
     -7.531  0.0000E+00  0.0000E+00  0.3400E-01  0.3400E-01
     -7.493  0.0000E+00  0.0000E+00  0.3400E-01  0.3400E-01
     -7.455  0.0000E+00  0.0000E+00  0.3600E-01  0.3600E-01
     -7.417  0.0000E+00  0.0000E+00  0.3800E-01  0.3800E-01
     -7.379  0.0000E+00  0.0000E+00  0.3800E-01  0.3800E-01
     -7.341  0.0000E+00  0.0000E+00  0.3800E-01  0.3800E-01
     -7.303  0.0000E+00  0.0000E+00  0.3900E-01  0.3900E-01
     -7.265  0.0000E+00  0.0000E+00  0.4000E-01  0.4000E-01
     -7.226  0.0000E+00  0.0000E+00  0.4100E-01  0.4100E-01
     -7.188  0.0000E+00  0.0000E+00  0.4200E-01  0.4200E-01
     -7.150  0.0000E+00  0.0000E+00  0.4400E-01  0.4400E-01
     -7.112  0.0000E+00  0.0000E+00  0.4400E-01  0.4400E-01
     -7.074  0.0000E+00  0.0000E+00  0.4500E-01  0.4500E-01
     -7.036  0.0000E+00  0.0000E+00  0.4600E-01  0.4600E-01
     -6.998  0.0000E+00  0.0000E+00  0.4700E-01  0.4700E-01
     -6.960  0.0000E+00  0.0000E+00  0.4800E-01  0.4800E-01
     -6.922  0.0000E+00  0.0000E+00  0.5000E-01  0.5000E-01
     -6.884  0.0000E+00  0.0000E+00  0.5100E-01  0.5100E-01
     -6.846  0.1458E-17  0.1458E-17  0.5200E-01  0.5200E-01
     -6.808  0.0000E+00  0.0000E+00  0.5500E-01  0.5500E-01
     -6.770  0.2627E-01  0.2627E-01  0.5700E-01  0.5700E-01
     -6.732  0.0000E+00  0.0000E+00  0.5900E-01  0.5900E-01
     -6.693  0.0000E+00  0.0000E+00  0.6200E-01  0.6200E-01
     -6.655  0.0000E+00  0.0000E+00  0.6300E-01  0.6300E-01
     -6.617  0.0000E+00  0.0000E+00  0.6500E-01  0.6500E-01
     -6.579  0.0000E+00  0.0000E+00  0.6600E-01  0.6600E-01
     -6.541  0.0000E+00  0.0000E+00  0.6800E-01  0.6800E-01
     -6.503  0.0000E+00  0.0000E+00  0.6800E-01  0.6800E-01
     -6.465  0.0000E+00  0.0000E+00  0.6800E-01  0.6800E-01
     -6.427  0.0000E+00  0.0000E+00  0.6800E-01  0.6800E-01
     -6.389  0.0000E+00  0.0000E+00  0.6900E-01  0.6900E-01
     -6.351  0.0000E+00  0.0000E+00  0.7000E-01  0.7000E-01
     -6.313  0.0000E+00  0.0000E+00  0.7000E-01  0.7000E-01
     -6.275  0.0000E+00  0.0000E+00  0.7100E-01  0.7100E-01
     -6.237  0.0000E+00  0.0000E+00  0.7100E-01  0.7100E-01
     -6.198  0.0000E+00  0.0000E+00  0.7100E-01  0.7100E-01
     -6.160  0.0000E+00  0.0000E+00  0.7100E-01  0.7100E-01
     -6.122  0.0000E+00  0.0000E+00  0.7100E-01  0.7100E-01
     -6.084  0.0000E+00  0.0000E+00  0.7100E-01  0.7100E-01
     -6.046  0.0000E+00  0.0000E+00  0.7100E-01  0.7100E-01
     -6.008  0.0000E+00  0.0000E+00  0.7100E-01  0.7100E-01
     -5.970  0.0000E+00  0.0000E+00  0.7100E-01  0.7100E-01
     -5.932  0.0000E+00  0.0000E+00  0.7100E-01  0.7100E-01
     -5.894  0.0000E+00  0.0000E+00  0.7100E-01  0.7100E-01
     -5.856  0.0000E+00  0.0000E+00  0.7300E-01  0.7300E-01
     -5.818  0.0000E+00  0.0000E+00  0.7300E-01  0.7300E-01
     -5.780  0.0000E+00  0.0000E+00  0.7300E-01  0.7300E-01
     -5.742  0.0000E+00  0.0000E+00  0.7300E-01  0.7300E-01
     -5.704  0.0000E+00  0.0000E+00  0.7300E-01  0.7300E-01
     -5.665  0.0000E+00  0.0000E+00  0.7400E-01  0.7400E-01
     -5.627  0.0000E+00  0.0000E+00  0.7400E-01  0.7400E-01
     -5.589  0.0000E+00  0.0000E+00  0.7400E-01  0.7400E-01
     -5.551  0.0000E+00  0.0000E+00  0.7400E-01  0.7400E-01
     -5.513  0.0000E+00  0.0000E+00  0.7400E-01  0.7400E-01
     -5.475  0.0000E+00  0.0000E+00  0.7400E-01  0.7400E-01
     -5.437  0.0000E+00  0.0000E+00  0.7400E-01  0.7400E-01
     -5.399  0.0000E+00  0.0000E+00  0.7400E-01  0.7400E-01
     -5.361  0.0000E+00  0.0000E+00  0.7400E-01  0.7400E-01
     -5.323  0.0000E+00  0.0000E+00  0.7400E-01  0.7400E-01
     -5.285  0.0000E+00  0.0000E+00  0.7400E-01  0.7400E-01
     -5.247  0.0000E+00  0.0000E+00  0.7400E-01  0.7400E-01
     -5.209  0.0000E+00  0.0000E+00  0.7400E-01  0.7400E-01
     -5.170  0.0000E+00  0.0000E+00  0.7400E-01  0.7400E-01
     -5.132  0.0000E+00  0.0000E+00  0.7400E-01  0.7400E-01
     -5.094  0.0000E+00  0.0000E+00  0.7400E-01  0.7400E-01
     -5.056  0.0000E+00  0.0000E+00  0.7400E-01  0.7400E-01
     -5.018  0.0000E+00  0.0000E+00  0.7400E-01  0.7400E-01
     -4.980  0.0000E+00  0.0000E+00  0.7400E-01  0.7400E-01
     -4.942  0.0000E+00  0.0000E+00  0.7400E-01  0.7400E-01
     -4.904  0.0000E+00  0.0000E+00  0.7400E-01  0.7400E-01
     -4.866  0.0000E+00  0.0000E+00  0.7400E-01  0.7400E-01
     -4.828  0.0000E+00  0.0000E+00  0.7400E-01  0.7400E-01
     -4.790  0.0000E+00  0.0000E+00  0.7400E-01  0.7400E-01
     -4.752  0.0000E+00  0.0000E+00  0.7400E-01  0.7400E-01
     -4.714  0.0000E+00  0.0000E+00  0.7400E-01  0.7400E-01
     -4.676  0.0000E+00  0.0000E+00  0.7400E-01  0.7400E-01
     -4.637  0.0000E+00  0.0000E+00  0.7400E-01  0.7400E-01
     -4.599  0.0000E+00  0.0000E+00  0.7400E-01  0.7400E-01
     -4.561  0.0000E+00  0.0000E+00  0.7400E-01  0.7400E-01
     -4.523  0.0000E+00  0.0000E+00  0.7400E-01  0.7400E-01
     -4.485  0.0000E+00  0.0000E+00  0.7400E-01  0.7400E-01
     -4.447  0.0000E+00  0.0000E+00  0.7400E-01  0.7400E-01
     -4.409  0.0000E+00  0.0000E+00  0.7400E-01  0.7400E-01
     -4.371  0.0000E+00  0.0000E+00  0.7400E-01  0.7400E-01
     -4.333  0.0000E+00  0.0000E+00  0.7400E-01  0.7400E-01
     -4.295  0.0000E+00  0.0000E+00  0.7400E-01  0.7400E-01
     -4.257  0.0000E+00  0.0000E+00  0.7400E-01  0.7400E-01
     -4.219  0.0000E+00  0.0000E+00  0.7400E-01  0.7400E-01
     -4.181  0.0000E+00  0.0000E+00  0.7400E-01  0.7400E-01
     -4.143  0.0000E+00  0.0000E+00  0.7400E-01  0.7400E-01
     -4.104  0.0000E+00  0.0000E+00  0.7400E-01  0.7400E-01
     -4.066  0.0000E+00  0.0000E+00  0.7400E-01  0.7400E-01
     -4.028  0.0000E+00  0.0000E+00  0.7500E-01  0.7500E-01
     -3.990  0.0000E+00  0.0000E+00  0.7600E-01  0.7600E-01
     -3.952  0.0000E+00  0.0000E+00  0.7700E-01  0.7700E-01
     -3.914  0.0000E+00  0.0000E+00  0.7700E-01  0.7700E-01
     -3.876  0.0000E+00  0.0000E+00  0.7700E-01  0.7700E-01
     -3.838  0.0000E+00  0.0000E+00  0.7700E-01  0.7700E-01
     -3.800  0.0000E+00  0.0000E+00  0.7700E-01  0.7700E-01
     -3.762  0.0000E+00  0.0000E+00  0.7700E-01  0.7700E-01
     -3.724  0.0000E+00  0.0000E+00  0.7700E-01  0.7700E-01
     -3.686  0.0000E+00  0.0000E+00  0.7700E-01  0.7700E-01
     -3.648  0.0000E+00  0.0000E+00  0.7700E-01  0.7700E-01
     -3.609  0.0000E+00  0.0000E+00  0.7700E-01  0.7700E-01
     -3.571  0.0000E+00  0.0000E+00  0.7700E-01  0.7700E-01
     -3.533  0.0000E+00  0.0000E+00  0.7700E-01  0.7700E-01
     -3.495  0.0000E+00  0.0000E+00  0.7700E-01  0.7700E-01
     -3.457  0.0000E+00  0.0000E+00  0.7700E-01  0.7700E-01
     -3.419  0.0000E+00  0.0000E+00  0.7700E-01  0.7700E-01
     -3.381  0.0000E+00  0.0000E+00  0.7700E-01  0.7700E-01
     -3.343  0.0000E+00  0.0000E+00  0.7800E-01  0.7800E-01
     -3.305  0.0000E+00  0.0000E+00  0.7900E-01  0.7900E-01
     -3.267  0.0000E+00  0.0000E+00  0.7900E-01  0.7900E-01
     -3.229  0.0000E+00  0.0000E+00  0.7900E-01  0.7900E-01
     -3.191  0.0000E+00  0.0000E+00  0.7900E-01  0.7900E-01
     -3.153  0.0000E+00  0.0000E+00  0.7900E-01  0.7900E-01
     -3.115  0.0000E+00  0.0000E+00  0.7900E-01  0.7900E-01
     -3.076  0.0000E+00  0.0000E+00  0.7900E-01  0.7900E-01
     -3.038  0.0000E+00  0.0000E+00  0.7900E-01  0.7900E-01
     -3.000  0.0000E+00  0.0000E+00  0.7900E-01  0.7900E-01
     -2.962  0.0000E+00  0.0000E+00  0.7900E-01  0.7900E-01
     -2.924  0.0000E+00  0.0000E+00  0.7900E-01  0.7900E-01
     -2.886  0.0000E+00  0.0000E+00  0.7900E-01  0.7900E-01
     -2.848  0.0000E+00  0.0000E+00  0.8000E-01  0.8000E-01
     -2.810  0.0000E+00  0.0000E+00  0.8000E-01  0.8000E-01
     -2.772  0.0000E+00  0.0000E+00  0.8000E-01  0.8000E-01
     -2.734  0.0000E+00  0.0000E+00  0.8000E-01  0.8000E-01
     -2.696  0.0000E+00  0.0000E+00  0.8000E-01  0.8000E-01
     -2.658  0.0000E+00  0.0000E+00  0.8000E-01  0.8000E-01
     -2.620  0.0000E+00  0.0000E+00  0.8000E-01  0.8000E-01
     -2.582  0.0000E+00  0.0000E+00  0.8000E-01  0.8000E-01
     -2.543  0.0000E+00  0.0000E+00  0.8000E-01  0.8000E-01
     -2.505  0.0000E+00  0.0000E+00  0.8000E-01  0.8000E-01
     -2.467  0.0000E+00  0.0000E+00  0.8000E-01  0.8000E-01
     -2.429  0.0000E+00  0.0000E+00  0.8000E-01  0.8000E-01
     -2.391  0.0000E+00  0.0000E+00  0.8000E-01  0.8000E-01
     -2.353  0.0000E+00  0.0000E+00  0.8000E-01  0.8000E-01
     -2.315  0.0000E+00  0.0000E+00  0.8000E-01  0.8000E-01
     -2.277  0.0000E+00  0.0000E+00  0.8000E-01  0.8000E-01
     -2.239  0.0000E+00  0.0000E+00  0.8000E-01  0.8000E-01
     -2.201  0.0000E+00  0.0000E+00  0.8000E-01  0.8000E-01
     -2.163  0.0000E+00  0.0000E+00  0.8000E-01  0.8000E-01
     -2.125  0.0000E+00  0.0000E+00  0.8000E-01  0.8000E-01
     -2.087  0.0000E+00  0.0000E+00  0.8100E-01  0.8100E-01
     -2.048  0.0000E+00  0.0000E+00  0.8100E-01  0.8100E-01
     -2.010  0.0000E+00  0.0000E+00  0.8100E-01  0.8100E-01
     -1.972  0.0000E+00  0.0000E+00  0.8100E-01  0.8100E-01
     -1.934  0.0000E+00  0.0000E+00  0.8200E-01  0.8200E-01
     -1.896  0.0000E+00  0.0000E+00  0.8200E-01  0.8200E-01
     -1.858  0.0000E+00  0.0000E+00  0.8200E-01  0.8200E-01
     -1.820  0.0000E+00  0.0000E+00  0.8200E-01  0.8200E-01
     -1.782  0.0000E+00  0.0000E+00  0.8200E-01  0.8200E-01
     -1.744  0.0000E+00  0.0000E+00  0.8400E-01  0.8400E-01
     -1.706  0.0000E+00  0.0000E+00  0.8400E-01  0.8400E-01
     -1.668  0.0000E+00  0.0000E+00  0.8400E-01  0.8400E-01
     -1.630  0.0000E+00  0.0000E+00  0.8400E-01  0.8400E-01
     -1.592  0.0000E+00  0.0000E+00  0.8400E-01  0.8400E-01
     -1.554  0.0000E+00  0.0000E+00  0.8400E-01  0.8400E-01
     -1.515  0.0000E+00  0.0000E+00  0.8400E-01  0.8400E-01
     -1.477  0.0000E+00  0.0000E+00  0.8400E-01  0.8400E-01
     -1.439  0.0000E+00  0.0000E+00  0.8400E-01  0.8400E-01
     -1.401  0.0000E+00  0.0000E+00  0.8400E-01  0.8400E-01
     -1.363  0.0000E+00  0.0000E+00  0.8500E-01  0.8500E-01
     -1.325  0.0000E+00  0.0000E+00  0.8500E-01  0.8500E-01
     -1.287  0.0000E+00  0.0000E+00  0.8700E-01  0.8700E-01
     -1.249  0.0000E+00  0.0000E+00  0.8700E-01  0.8700E-01
     -1.211  0.0000E+00  0.0000E+00  0.8700E-01  0.8700E-01
     -1.173  0.0000E+00  0.0000E+00  0.8700E-01  0.8700E-01
     -1.135  0.0000E+00  0.0000E+00  0.8700E-01  0.8700E-01
     -1.097  0.0000E+00  0.0000E+00  0.8700E-01  0.8700E-01
     -1.059  0.0000E+00  0.0000E+00  0.8700E-01  0.8700E-01
     -1.020  0.0000E+00  0.0000E+00  0.8800E-01  0.8800E-01
     -0.982  0.0000E+00  0.0000E+00  0.8800E-01  0.8800E-01
     -0.944  0.0000E+00  0.0000E+00  0.8800E-01  0.8800E-01
     -0.906  0.0000E+00  0.0000E+00  0.8800E-01  0.8800E-01
     -0.868  0.0000E+00  0.0000E+00  0.8800E-01  0.8800E-01
     -0.830  0.0000E+00  0.0000E+00  0.8900E-01  0.8900E-01
     -0.792  0.0000E+00  0.0000E+00  0.9000E-01  0.9000E-01
     -0.754  0.0000E+00  0.0000E+00  0.9000E-01  0.9000E-01
     -0.716  0.0000E+00  0.0000E+00  0.9000E-01  0.9000E-01
     -0.678  0.0000E+00  0.0000E+00  0.9000E-01  0.9000E-01
     -0.640  0.0000E+00  0.0000E+00  0.9000E-01  0.9000E-01
     -0.602  0.0000E+00  0.0000E+00  0.9000E-01  0.9000E-01
     -0.564  0.0000E+00  0.0000E+00  0.9000E-01  0.9000E-01
     -0.526  0.0000E+00  0.0000E+00  0.9000E-01  0.9000E-01
     -0.487  0.0000E+00  0.0000E+00  0.9000E-01  0.9000E-01
     -0.449  0.0000E+00  0.0000E+00  0.9000E-01  0.9000E-01
     -0.411  0.0000E+00  0.0000E+00  0.9000E-01  0.9000E-01
     -0.373  0.0000E+00  0.0000E+00  0.9000E-01  0.9000E-01
     -0.335  0.0000E+00  0.0000E+00  0.9000E-01  0.9000E-01
     -0.297  0.0000E+00  0.0000E+00  0.9000E-01  0.9000E-01
     -0.259  0.0000E+00  0.0000E+00  0.9000E-01  0.9000E-01
     -0.221  0.0000E+00  0.0000E+00  0.9000E-01  0.9000E-01
     -0.183  0.0000E+00  0.0000E+00  0.9000E-01  0.9000E-01
     -0.145  0.0000E+00  0.0000E+00  0.9000E-01  0.9000E-01
     -0.107  0.0000E+00  0.0000E+00  0.9000E-01  0.9000E-01
     -0.069  0.0000E+00  0.0000E+00  0.9000E-01  0.9000E-01
     -0.031  0.0000E+00  0.0000E+00  0.9000E-01  0.9000E-01
      0.007  0.0000E+00  0.0000E+00  0.9000E-01  0.9000E-01
      0.046  0.0000E+00  0.0000E+00  0.9000E-01  0.9000E-01
      0.084  0.0000E+00  0.0000E+00  0.9100E-01  0.9100E-01
      0.122  0.0000E+00  0.0000E+00  0.9100E-01  0.9100E-01
      0.160  0.0000E+00  0.0000E+00  0.9200E-01  0.9200E-01
      0.198  0.0000E+00  0.0000E+00  0.9300E-01  0.9300E-01
      0.236  0.0000E+00  0.0000E+00  0.9300E-01  0.9300E-01
      0.274  0.0000E+00  0.0000E+00  0.9300E-01  0.9300E-01
      0.312  0.0000E+00  0.0000E+00  0.9500E-01  0.9500E-01
      0.350  0.0000E+00  0.0000E+00  0.9600E-01  0.9600E-01
      0.388  0.0000E+00  0.0000E+00  0.9600E-01  0.9600E-01
      0.426  0.0000E+00  0.0000E+00  0.9600E-01  0.9600E-01
      0.464  0.0000E+00  0.0000E+00  0.9600E-01  0.9600E-01
      0.502  0.0000E+00  0.0000E+00  0.9600E-01  0.9600E-01
      0.541  0.0000E+00  0.0000E+00  0.9600E-01  0.9600E-01
      0.579  0.0000E+00  0.0000E+00  0.9700E-01  0.9700E-01
      0.617  0.0000E+00  0.0000E+00  0.9800E-01  0.9800E-01
      0.655  0.0000E+00  0.0000E+00  0.9900E-01  0.9900E-01
      0.693  0.0000E+00  0.0000E+00  0.9900E-01  0.9900E-01
      0.731  0.0000E+00  0.0000E+00  0.9900E-01  0.9900E-01
      0.769  0.0000E+00  0.0000E+00  0.1000E+00  0.1000E+00
      0.807  0.0000E+00  0.0000E+00  0.1000E+00  0.1000E+00
      0.845  0.0000E+00  0.0000E+00  0.1000E+00  0.1000E+00
      0.883  0.0000E+00  0.0000E+00  0.1000E+00  0.1000E+00
      0.921  0.0000E+00  0.0000E+00  0.1000E+00  0.1000E+00
      0.959  0.0000E+00  0.0000E+00  0.1000E+00  0.1000E+00
      0.997  0.0000E+00  0.0000E+00  0.1000E+00  0.1000E+00
      1.035  0.0000E+00  0.0000E+00  0.1000E+00  0.1000E+00
      1.074  0.0000E+00  0.0000E+00  0.1000E+00  0.1000E+00
      1.112  0.0000E+00  0.0000E+00  0.1000E+00  0.1000E+00
      1.150  0.0000E+00  0.0000E+00  0.1000E+00  0.1000E+00
      1.188  0.0000E+00  0.0000E+00  0.1000E+00  0.1000E+00
      1.226  0.0000E+00  0.0000E+00  0.1000E+00  0.1000E+00
      1.264  0.0000E+00  0.0000E+00  0.1000E+00  0.1000E+00
