   32   32 1000    2
  0.2947120E+03  0.2112756E-08  0.2112756E-08  0.2112756E-08  0.1000000E-15
  1.000000000000000E-004
  CAR 
 unknown system                          
    352      1    228
 
  0.0000000E+00  0.0000000E+00  0.0000000E+00  0.1000000E+01
    1       -9.657577     -9.657577
    2       -9.205685     -9.205685
    3       -9.158180     -9.158180
    4       -9.094485     -9.094485
    5       -9.075989     -9.075989
    6       -9.064908     -9.064908
    7       -8.982401     -8.982401
    8       -8.851201     -8.851201
    9       -8.822324     -8.822324
   10       -8.791343     -8.791343
   11       -8.770575     -8.770575
   12       -8.751564     -8.751564
   13       -8.738815     -8.738815
   14       -8.677784     -8.677784
   15       -8.667078     -8.667078
   16       -8.651494     -8.651494
   17       -8.633287     -8.633287
   18       -8.592351     -8.592351
   19       -8.586544     -8.586544
   20       -8.559329     -8.559329
   21       -8.535730     -8.535730
   22       -8.513281     -8.513281
   23       -8.506068     -8.506068
   24       -8.486290     -8.486290
   25       -8.477945     -8.477945
   26       -8.467568     -8.467568
   27       -8.441704     -8.441704
   28       -8.437361     -8.437361
   29       -8.420034     -8.420034
   30       -8.386653     -8.386653
   31       -8.372094     -8.372094
   32       -8.365711     -8.365711
   33       -8.341023     -8.341023
   34       -8.308964     -8.308964
   35       -8.295654     -8.295654
   36       -8.283247     -8.283247
   37       -8.255491     -8.255491
   38       -8.252243     -8.252243
   39       -8.222838     -8.222838
   40       -8.208686     -8.208686
   41       -8.176822     -8.176822
   42       -8.175324     -8.175324
   43       -8.158871     -8.158871
   44       -8.151192     -8.151192
   45       -8.121114     -8.121115
   46       -8.102484     -8.102484
   47       -8.097515     -8.097515
   48       -8.069517     -8.069517
   49       -8.045078     -8.045078
   50       -8.022652     -8.022652
   51       -8.004688     -8.004688
   52       -7.982948     -7.982948
   53       -7.971038     -7.971038
   54       -7.962594     -7.962594
   55       -7.944159     -7.944159
   56       -7.931807     -7.931807
   57       -7.885349     -7.885349
   58       -7.879102     -7.879102
   59       -7.857948     -7.857948
   60       -7.833740     -7.833740
   61       -7.793163     -7.793163
   62       -7.782161     -7.782161
   63       -7.763542     -7.763542
   64       -7.731227     -7.731227
   65       -7.710046     -7.710046
   66       -7.671069     -7.671069
   67       -7.666707     -7.666707
   68       -7.639287     -7.639287
   69       -7.629077     -7.629077
   70       -7.605311     -7.605311
   71       -7.573536     -7.573536
   72       -7.561054     -7.561054
   73       -7.529773     -7.529773
   74       -7.514640     -7.514640
   75       -7.511781     -7.511781
   76       -7.490667     -7.490667
   77       -7.444109     -7.444109
   78       -7.436503     -7.436503
   79       -7.413190     -7.413190
   80       -7.386209     -7.386209
   81       -7.375459     -7.375459
   82       -7.340119     -7.340119
   83       -7.333866     -7.333866
   84       -7.304450     -7.304450
   85       -7.290354     -7.290354
   86       -7.272683     -7.272683
   87       -7.245285     -7.245285
   88       -7.230362     -7.230362
   89       -7.208760     -7.208760
   90       -7.198602     -7.198602
   91       -7.173526     -7.173526
   92       -7.164521     -7.164521
   93       -7.137728     -7.137728
   94       -7.117105     -7.117105
   95       -7.093163     -7.093163
   96       -7.070768     -7.070768
   97       -7.043628     -7.043628
   98       -7.040844     -7.040844
   99       -7.032861     -7.032861
  100       -7.025255     -7.025255
  101       -7.000515     -7.000515
  102       -6.990318     -6.990318
  103       -6.970423     -6.970423
  104       -6.961155     -6.961155
  105       -6.948927     -6.948927
  106       -6.938010     -6.938010
  107       -6.924618     -6.924618
  108       -6.906254     -6.906254
  109       -6.898666     -6.898666
  110       -6.884238     -6.884238
  111       -6.874198     -6.874198
  112       -6.866412     -6.866412
  113       -6.857798     -6.857798
  114       -6.849239     -6.849239
  115       -6.832494     -6.832494
  116       -6.820669     -6.820669
  117       -6.816196     -6.816197
  118       -6.806340     -6.806341
  119       -6.778489     -6.778489
  120       -6.762690     -6.762690
  121       -6.752782     -6.752782
  122       -6.741303     -6.741303
  123       -6.724266     -6.724266
  124       -6.698334     -6.698334
  125       -6.687249     -6.687249
  126       -6.680000     -6.680000
  127       -6.671636     -6.671636
  128       -6.665578     -6.665578
  129       -6.663940     -6.663940
  130       -6.653234     -6.653234
  131       -6.646854     -6.646854
  132       -6.640262     -6.640262
  133       -6.610772     -6.610772
  134       -6.601845     -6.601845
  135       -6.590614     -6.590614
  136       -6.572272     -6.572272
  137       -6.560590     -6.560590
  138       -6.550892     -6.550892
  139       -6.546013     -6.546013
  140       -6.523057     -6.523057
  141       -6.511462     -6.511462
  142       -6.496428     -6.496428
  143       -6.493478     -6.493478
  144       -6.466469     -6.466469
  145       -6.464357     -6.464357
  146       -6.457721     -6.457721
  147       -6.427856     -6.427856
  148       -6.417287     -6.417287
  149       -6.407247     -6.407247
  150       -6.395911     -6.395911
  151       -6.374042     -6.374042
  152       -6.371972     -6.371972
  153       -6.362441     -6.362441
  154       -6.354519     -6.354519
  155       -6.321371     -6.321371
  156       -6.309367     -6.309367
  157       -6.284989     -6.284989
  158       -6.252112     -6.252112
  159       -6.233784     -6.233784
  160       -6.219769     -6.219769
  161       -6.204093     -6.204093
  162       -6.168356     -6.168356
  163       -6.130680     -6.130680
  164       -6.107837     -6.107837
  165       -6.031278     -6.031278
  166       -5.593206     -5.593206
  167       -5.460812     -5.460812
  168       -5.282809     -5.282809
  169       -5.144211     -5.144211
  170       -4.757261     -4.757261
  171       -4.423357     -4.423357
  172       -4.034925     -4.034925
  173       -3.952090     -3.952090
  174       -3.789136     -3.789136
  175       -3.693408     -3.693408
  176       -3.564225     -3.564225
  177       -3.310622     -3.310622
  178       -3.167569     -3.167569
  179       -2.963689     -2.963689
  180       -2.755411     -2.755411
  181       -2.521969     -2.521969
  182       -2.408725     -2.408725
  183       -2.320409     -2.320409
  184       -2.120140     -2.120140
  185       -1.971708     -1.971708
  186       -1.947897     -1.947897
  187       -1.723570     -1.723570
  188       -1.587443     -1.587442
  189       -1.524828     -1.524828
  190       -1.409600     -1.409599
  191       -1.334159     -1.334159
  192       -1.258649     -1.258648
  193       -1.033998     -1.033997
  194       -0.913109     -0.913108
  195       -0.874717     -0.874717
  196       -0.782278     -0.782278
  197       -0.513450     -0.513449
  198       -0.445539     -0.445537
  199       -0.427567     -0.427566
  200       -0.327100     -0.327099
  201       -0.138371     -0.138371
  202       -0.040071     -0.040071
  203       -0.017708     -0.017707
  204        0.065124      0.065124
  205        0.220905      0.220906
  206        0.361416      0.361418
  207        0.472238      0.472247
  208        0.529049      0.529049
  209        0.554785      0.554787
  210        0.601479      0.601486
  211        0.665517      0.665523
  212        0.716895      0.716901
  213        0.784728      0.784737
  214        0.841965      0.841977
  215        0.848257      0.848260
  216        0.877516      0.877522
  217        0.919099      0.919104
  218        0.980426      0.980431
  219        1.010706      1.010710
  220        1.042324      1.042327
  221        1.090618      1.090620
  222        1.128773      1.128780
  223        1.145746      1.145752
  224        1.158590      1.158598
  225        1.177567      1.177575
  226        1.204415      1.204423
  227        1.255753      1.255763
  228        1.262297      1.262300
