 vasp.5.3.5 31Mar14 (build Feb 01 2018 12:10:03) gamma-only                     
  
 executed on             LinuxIFC date 2019.03.23  21:13:52
 running on   32 total cores
 distrk:  each k-point on   32 cores,    1 groups
 distr:  one band on NCORES_PER_BAND=   8 cores,    4 groups


--------------------------------------------------------------------------------------------------------


 INCAR:
 POTCAR:    PAW_PBE Ag 02Apr2005                  
 POTCAR:    PAW_PBE Ag 02Apr2005                  
   VRHFIN =Ag : s1 d10                                                          
   LEXCH  = PE                                                                  
   EATOM  =  1037.2675 eV,   76.2370 Ry                                         
                                                                                
   TITEL  = PAW_PBE Ag 02Apr2005                                                
   LULTRA =        F    use ultrasoft PP ?                                      
   IUNSCR =        1    unscreen: 0-lin 1-nonlin 2-no                           
   RPACOR =    2.000    partial core radius                                     
   POMASS =  107.868; ZVAL   =   11.000    mass and valenz                      
   RCORE  =    2.500    outmost cutoff radius                                   
   RWIGS  =    2.840; RWIGS  =    1.503    wigner-seitz radius (au A)           
   ENMAX  =  249.844; ENMIN  =  187.383 eV                                      
   ICORE  =        3    local potential                                         
   LCOR   =        T    correct aug charges                                     
   LPAW   =        T    paw PP                                                  
   EAUG   =  412.496                                                            
   DEXC   =    0.000                                                            
   RMAX   =    2.560    core radius for proj-oper                               
   RAUG   =    1.300    factor for augmentation sphere                          
   RDEP   =    2.576    radius for radial grids                                 
   RDEPT  =    2.072    core radius for aug-charge                              
                                                                                
   Atomic configuration                                                         
   12 entries                                                                   
     n  l   j            E        occ.                                          
     1  0  0.50    -25324.9161   2.0000                                         
     2  0  0.50     -3728.5341   2.0000                                         
     2  1  1.50     -3344.0404   6.0000                                         
     3  0  0.50      -683.5581   2.0000                                         
     3  1  1.50      -557.3225   6.0000                                         
     3  2  2.50      -358.3853  10.0000                                         
     4  0  0.50       -95.0341   2.0000                                         
     4  1  1.50       -58.5511   6.0000                                         
     4  2  2.50        -7.4440  10.0000                                         
     5  0  0.50        -4.4045   1.0000                                         
     5  1  0.50        -1.3606   0.0000                                         
     4  3  2.50        -1.3606   0.0000                                         
   Description                                                                  
     l       E           TYP  RCUT    TYP  RCUT                                 
     2     -7.4439781     23  2.400                                             
     2     -8.8045607     23  2.400                                             
     0     -4.4044681     23  2.400                                             
     0      1.9520038     23  2.400                                             
     1     -1.3605826     23  2.500                                             
     1     27.2116520     23  2.500                                             
     3     -4.0817478     23  2.400                                             
  local pseudopotential read in
  partial core-charges read in
  partial kinetic energy density read in
  atomic valenz-charges read in
  non local Contribution for L=           2  read in
    real space projection operators read in
  non local Contribution for L=           2  read in
    real space projection operators read in
  non local Contribution for L=           0  read in
    real space projection operators read in
  non local Contribution for L=           0  read in
    real space projection operators read in
  non local Contribution for L=           1  read in
    real space projection operators read in
  non local Contribution for L=           1  read in
    real space projection operators read in
    PAW grid and wavefunctions read in
 
   number of l-projection  operators is LMAX  =           6
   number of lm-projection operators is LMMAX =          18
 
  PAW_PBE Ag 02Apr2005                  :
 energy of atom  1       EATOM=-1037.2675
 kinetic energy error for atom=    0.0689 (will be added to EATOM!!)
 
 
 POSCAR: Pb8, -24.48682052 <s> Ag </s>           
  positions in direct lattice
  No initial velocities read in
 exchange correlation table for  LEXCH =        8
   RHO(1)=    0.500       N(1)  =     2000
   RHO(2)=  100.500       N(2)  =     4000
 


--------------------------------------------------------------------------------------------------------


 ion  position               nearest neighbor table
   1  0.351  0.465  0.311-   5 2.58   3 2.63   2 2.64   4 2.66
   2  0.484  0.507  0.337-   6 2.63   1 2.64   3 2.69   5 2.70
   3  0.442  0.372  0.367-   1 2.63   4 2.64   6 2.65   2 2.69   7 2.92   5 3.01
   4  0.310  0.379  0.419-   7 2.55   3 2.64   1 2.66   5 2.68
   5  0.381  0.503  0.441-   6 2.58   1 2.58   4 2.68   2 2.70   7 2.98   3 3.01
   6  0.508  0.452  0.465-   8 2.33   5 2.58   2 2.63   3 2.65   7 2.73
   7  0.403  0.365  0.519-   4 2.55   8 2.62   6 2.73   3 2.92   5 2.98
   8  0.538  0.373  0.558-   6 2.33   7 2.62
 
  LATTYP: Found a simple cubic cell.
 ALAT       =    18.5753545509
  
  Lattice vectors:
  
 A1 = (  18.5753545509,   0.0000000000,   0.0000000000)
 A2 = (   0.0000000000,  18.5753545509,   0.0000000000)
 A3 = (   0.0000000000,   0.0000000000,  18.5753545509)


Analysis of symmetry for initial positions (statically):
=====================================================================
 Subroutine PRICEL returns:
 Original cell was already a primitive cell.
 

 Routine SETGRP: Setting up the symmetry group for a 
 simple cubic supercell.


 Subroutine GETGRP returns: Found  1 space group operations
 (whereof  1 operations were pure point group operations)
 out of a pool of 48 trial point group operations.


The static configuration has the point symmetry C_1 .


Analysis of symmetry for dynamics (positions and initial velocities):
=====================================================================
 Subroutine PRICEL returns:
 Original cell was already a primitive cell.
 

 Routine SETGRP: Setting up the symmetry group for a 
 simple cubic supercell.


 Subroutine GETGRP returns: Found  1 space group operations
 (whereof  1 operations were pure point group operations)
 out of a pool of 48 trial point group operations.


The dynamic configuration has the point symmetry C_1 .


Analysis of magnetic symmetry:
=====================================================================
 Subroutine PRICEL returns:
 Original cell was already a primitive cell.
 

 Subroutine MAGSYM returns: Found  1 space group operations
 (whereof  1 operations were pure point group operations)
 out of a pool of  1 trial space group operations
 (whereof  1 operations were pure point group operations)
 and found also     1 'primitive' translations


The magnetic configuration has the point symmetry C_1 .
 
 
 KPOINTS: Gamma-point only                        
  k-points in reciprocal lattice
Space group operators:
 irot       det(A)        alpha          n_x          n_y          n_z        tau_x        tau_y        tau_z
    1     1.000000     0.000000     1.000000     0.000000     0.000000     0.000000     0.000000     0.000000


--------------------------------------------------------------------------------------------------------




 Dimension of arrays:
   k-points           NKPTS =      1   k-points in BZ     NKDIM =      1   number of bands    NBANDS=     56
   number of dos      NEDOS =    301   number of ions     NIONS =      8
   non local maximal  LDIM  =      6   non local SUM 2l+1 LMDIM =     18
   total plane-waves  NPLWV = 373248
   max r-space proj   IRMAX =      1   max aug-charges    IRDMAX=   3063
   dimension x,y,z NGX =    72 NGY =   72 NGZ =   72
   dimension x,y,z NGXF=   144 NGYF=  144 NGZF=  144
   support grid    NGXF=   144 NGYF=  144 NGZF=  144
   ions per type =               8
 NGX,Y,Z   is equivalent  to a cutoff of   6.44,  6.44,  6.44 a.u.
 NGXF,Y,Z  is equivalent  to a cutoff of  12.89, 12.89, 12.89 a.u.


 I would recommend the setting:
   dimension x,y,z NGX =    72 NGY =   72 NGZ =   72
 SYSTEM =  unknown system                          
 POSCAR =  Pb8, -24.48682052 <s> Ag </s>           

 Startparameter for this run:
   NWRITE =      2    write-flag & timer
   PREC   = normal    normal or accurate (medium, high low for compatibility)
   ISTART =      0    job   : 0-new  1-cont  2-samecut
   ICHARG =      2    charge: 1-file 2-atom 10-const
   ISPIN  =      2    spin polarized calculation?
   LNONCOLLINEAR =      F non collinear calculations
   LSORBIT =      F    spin-orbit coupling
   INIWAV =      1    electr: 0-lowe 1-rand  2-diag
   LASPH  =      F    aspherical Exc in radial PAW
   METAGGA=      F    non-selfconsistent MetaGGA calc.

 Electronic Relaxation 1
   ENCUT  =  249.8 eV  18.36 Ry    4.29 a.u.  23.94 23.94 23.94*2*pi/ulx,y,z
   ENINI  =  249.8     initial cutoff
   ENAUG  =  412.5 eV  augmentation charge cutoff
   NELM   =     60;   NELMIN=  2; NELMDL= -5     # of ELM steps 
   EDIFF  = 0.1E-03   stopping-criterion for ELM
   LREAL  =      F    real-space projection
   NLSPLINE    = F    spline interpolate recip. space projectors
   LCOMPAT=      F    compatible to vasp.4.4
   GGA_COMPAT  = T    GGA compatible to vasp.4.4-vasp.4.6
   LMAXPAW     = -100 max onsite density
   LMAXMIX     =    2 max onsite mixed and CHGCAR
   VOSKOWN=      0    Vosko Wilk Nusair interpolation
   ROPT   =    0.00000
 Ionic relaxation
   EDIFFG = 0.1E-02   stopping-criterion for IOM
   NSW    =   1000    number of steps for IOM
   NBLOCK =      1;   KBLOCK =   1000    inner block; outer block 
   IBRION =      2    ionic relax: 0-MD 1-quasi-New 2-CG
   NFREE  =      1    steps in history (QN), initial steepest desc. (CG)
   ISIF   =      2    stress and relaxation
   IWAVPR =     11    prediction:  0-non 1-charg 2-wave 3-comb
   ISYM   =      2    0-nonsym 1-usesym 2-fastsym
   LCORR  =      T    Harris-Foulkes like correction to forces

   POTIM  = 0.1000    time-step for ionic-motion
   TEIN   =    0.0    initial temperature
   TEBEG  =    0.0;   TEEND  =   0.0 temperature during run
   SMASS  =  -3.00    Nose mass-parameter (am)
   estimated Nose-frequenzy (Omega)   =  0.10E-29 period in steps =****** mass=  -0.789E-26a.u.
   SCALEE = 1.0000    scale energy and forces
   NPACO  =    256;   APACO  = 16.0  distance and # of slots for P.C.
   PSTRESS=    0.0 pullay stress

  Mass of Ions in am
   POMASS = 107.87
  Ionic Valenz
   ZVAL   =  11.00
  Atomic Wigner-Seitz radii
   RWIGS  =  -1.00
  virtual crystal weights 
   VCA    =   1.00
   NELECT =      88.0000    total number of electrons
   NUPDOWN=      -1.0000    fix difference up-down

 DOS related values:
   EMIN   =  10.00;   EMAX   =-10.00  energy-range for DOS
   EFERMI =   0.00
   ISMEAR =     0;   SIGMA  =   0.00  broadening in eV -4-tet -1-fermi 0-gaus

 Electronic relaxation 2 (details)
   IALGO  =     38    algorithm
   LDIAG  =      T    sub-space diagonalisation (order eigenvalues)
   LSUBROT=      F    optimize rotation matrix (better conditioning)
   TURBO    =      0    0=normal 1=particle mesh
   IRESTART =      0    0=no restart 2=restart with 2 vectors
   NREBOOT  =      0    no. of reboots
   NMIN     =      0    reboot dimension
   EREF     =   0.00    reference energy to select bands
   IMIX   =      4    mixing-type and parameters
     AMIX     =   0.40;   BMIX     =  1.00
     AMIX_MAG =   1.60;   BMIX_MAG =  1.00
     AMIN     =   0.10
     WC   =   100.;   INIMIX=   1;  MIXPRE=   1;  MAXMIX= -45

 Intra band minimization:
   WEIMIN = 0.0010     energy-eigenvalue tresh-hold
   EBREAK =  0.45E-06  absolut break condition
   DEPER  =   0.30     relativ break condition  

   TIME   =   0.40     timestep for ELM

  volume/ion in A,a.u.               =     801.16      5406.52
  Fermi-wavevector in a.u.,A,eV,Ry     =   0.392011  0.740794  2.090846  0.153673
  Thomas-Fermi vector in A             =   1.335067
 
 Write flags
   LWAVE  =      F    write WAVECAR
   LCHARG =      F    write CHGCAR
   LVTOT  =      F    write LOCPOT, total local potential
   LVHAR  =      F    write LOCPOT, Hartree potential only
   LELF   =      F    write electronic localiz. function (ELF)
   LORBIT =      0    0 simple, 1 ext, 2 COOP (PROOUT)


 Dipole corrections
   LMONO  =      F    monopole corrections only (constant potential shift)
   LDIPOL =      F    correct potential (dipole corrections)
   IDIPOL =      0    1-x, 2-y, 3-z, 4-all directions 
   EPSILON=  1.0000000 bulk dielectric constant

 Exchange correlation treatment:
   GGA     =    PE    GGA type
   LEXCH   =     8    internal setting for exchange type
   VOSKOWN=      0    Vosko Wilk Nusair interpolation
   LHFCALC =     F    Hartree Fock is set to
   LHFONE  =     F    Hartree Fock one center treatment
   AEXX    =    0.0000 exact exchange contribution

 Linear response parameters
   LEPSILON=     F    determine dielectric tensor
   LRPA    =     F    only Hartree local field effects (RPA)
   LNABLA  =     F    use nabla operator in PAW spheres
   LVEL    =     F    velocity operator in full k-point grid
   LINTERFAST=   F  fast interpolation
   KINTER  =     0    interpolate to denser k-point grid
   CSHIFT  =0.1000    complex shift for real part using Kramers Kronig
   OMEGAMAX=  -1.0    maximum frequency
   DEG_THRESHOLD= 0.2000000E-02 threshold for treating states as degnerate
   RTIME   =    0.100 relaxation time in fs

 Orbital magnetization related:
   ORBITALMAG=     F  switch on orbital magnetization
   LCHIMAG   =     F  perturbation theory with respect to B field
   DQ        =  0.001000  dq finite difference perturbation B field



--------------------------------------------------------------------------------------------------------


 conjugate gradient relaxation of ions
 charge density and potential will be updated during run
 spin polarized calculation
 Variant of blocked Davidson
 Davidson routine will perform the subspace rotation
 perform sub-space diagonalisation
    after iterative eigenvector-optimisation
 modified Broyden-mixing scheme, WC =      100.0
 initial mixing is a Kerker type mixing with AMIX =  0.4000 and BMIX =      1.0000
 Hartree-type preconditioning will be used
 using additional bands           12
 reciprocal scheme for non local part
 use partial core corrections
 calculate Harris-corrections to forces 
   (improved forces if not selfconsistent)
 use gradient corrections 
 use of overlap-Matrix (Vanderbilt PP)
 Gauss-broadening in eV      SIGMA  =   0.00


--------------------------------------------------------------------------------------------------------


  energy-cutoff  :      249.84
  volume of cell :     6409.31
      direct lattice vectors                 reciprocal lattice vectors
    18.575354551  0.000000000  0.000000000     0.053834773  0.000000000  0.000000000
     0.000000000 18.575354551  0.000000000     0.000000000  0.053834773  0.000000000
     0.000000000  0.000000000 18.575354551     0.000000000  0.000000000  0.053834773

  length of vectors
    18.575354551 18.575354551 18.575354551     0.053834773  0.053834773  0.053834773


 
 k-points in units of 2pi/SCALE and weight: Gamma-point only                        
   0.00000000  0.00000000  0.00000000       1.000
 
 k-points in reciprocal lattice and weights: Gamma-point only                        
   0.00000000  0.00000000  0.00000000       1.000
 
 position of ions in fractional coordinates (direct lattice) 
   0.35064782  0.46466914  0.31080994
   0.48367816  0.50747181  0.33722348
   0.44224856  0.37208486  0.36700905
   0.30991783  0.37944965  0.41870516
   0.38132834  0.50318075  0.44063901
   0.50801807  0.45197192  0.46524759
   0.40257544  0.36494931  0.51914719
   0.53811487  0.37275165  0.55774766
 
 position of ions in cartesian coordinates  (Angst):
   6.51340766  8.63139405  5.77340487
   8.98449333  9.42646888  6.26404577
   8.21492372  6.91160817  6.81732330
   5.75683350  7.04841175  7.77759681
   7.08330910  9.34676085  8.18502576
   9.43661577  8.39553858  8.64213887
   7.47798155  6.77906277  9.64334321
   9.99567449  6.92399407 10.36036053
 


--------------------------------------------------------------------------------------------------------


 use parallel FFT for wavefunctions z direction half grid
 k-point  1 :   0.0000 0.0000 0.0000  plane waves:   28778

 maximum and minimum number of plane-waves per node :      3606     3592

 maximum number of plane-waves:     28778
 maximum index in each direction: 
   IXMAX=   23   IYMAX=   23   IZMAX=   23
   IXMIN=  -23   IYMIN=  -23   IZMIN=    0

 WARNING: aliasing errors must be expected set NGX to  94 to avoid them
 WARNING: aliasing errors must be expected set NGY to  94 to avoid them
 WARNING: aliasing errors must be expected set NGZ to  94 to avoid them
 aliasing errors are usually negligible using standard VASP settings
 and one can safely disregard these warnings

 parallel 3D FFT for wavefunctions:
    minimum data exchange during FFTs selected (reduces bandwidth)
 parallel 3D FFT for charge:
    minimum data exchange during FFTs selected (reduces bandwidth)


 total amount of memory used by VASP on root node    48388. kBytes
========================================================================

   base      :      30000. kBytes
   nonl-proj :        979. kBytes
   fftplans  :       4479. kBytes
   grid      :      11298. kBytes
   one-center:         15. kBytes
   wavefun   :       1617. kBytes
 
     INWAV:  cpu time    0.00: real time    0.00
 Broyden mixing: mesh for mixing (old mesh)
   NGX = 47   NGY = 47   NGZ = 47
  (NGX  =144   NGY  =144   NGZ  =144)
  gives a total of 103823 points

 initial charge density was supplied:
 charge density of overlapping atoms calculated
 number of electron      88.0000000 magnetization       8.0000000
 keeping initial charge density in first step


--------------------------------------------------------------------------------------------------------


 Maximum index for augmentation-charges          239 (set IRDMAX)


--------------------------------------------------------------------------------------------------------


 First call to EWALD:  gamma=   0.095
 Maximum number of real-space cells 3x 3x 3
 Maximum number of reciprocal cells 3x 3x 3

 FEWALD executed in parallel
    FEWALD:  cpu time    0.00: real time    0.00


----------------------------------------- Iteration    1(   1)  ---------------------------------------


    POTLOK:  cpu time    0.19: real time    0.19
    SETDIJ:  cpu time    0.00: real time    0.01
     EDDAV:  cpu time    0.37: real time    0.37
       DOS:  cpu time    0.00: real time    0.00
    --------------------------------------------
      LOOP:  cpu time    0.56: real time    0.58

 eigenvalue-minimisations  :   232
 total energy-change (2. order) : 0.7706009E+03  (-0.1267541E+04)
 number of electron      88.0000000 magnetization       8.0000000
 augmentation part       88.0000000 magnetization       8.0000000

 Free energy of the ion-electron system (eV)
  ---------------------------------------------------
  alpha Z        PSCENC =         8.49342427
  Ewald energy   TEWEN  =      7293.20365102
  -Hartree energ DENC   =    -15205.86005412
  -exchange      EXHF   =         0.00000000
  -V(xc)+E(xc)   XCENC  =       -88.58429731
  PAW double counting   =      8026.97742456    -7658.11687103
  entropy T*S    EENTRO =        -0.00000000
  eigenvalues    EBANDS =        96.89858978
  atomic energy  EATOM  =      8297.58904069
  ---------------------------------------------------
  free energy    TOTEN  =       770.60090786 eV

  energy without entropy =      770.60090786  energy(sigma->0) =      770.60090786


--------------------------------------------------------------------------------------------------------




----------------------------------------- Iteration    1(   2)  ---------------------------------------


     EDDAV:  cpu time    0.61: real time    0.61
       DOS:  cpu time    0.00: real time    0.00
    --------------------------------------------
      LOOP:  cpu time    0.62: real time    0.62

 eigenvalue-minimisations  :   432
 total energy-change (2. order) :-0.4371034E+03  (-0.3964850E+03)
 number of electron      88.0000000 magnetization       8.0000000
 augmentation part       88.0000000 magnetization       8.0000000

 Free energy of the ion-electron system (eV)
  ---------------------------------------------------
  alpha Z        PSCENC =         8.49342427
  Ewald energy   TEWEN  =      7293.20365102
  -Hartree energ DENC   =    -15205.86005412
  -exchange      EXHF   =         0.00000000
  -V(xc)+E(xc)   XCENC  =       -88.58429731
  PAW double counting   =      8026.97742456    -7658.11687103
  entropy T*S    EENTRO =         0.00000000
  eigenvalues    EBANDS =      -340.20481999
  atomic energy  EATOM  =      8297.58904069
  ---------------------------------------------------
  free energy    TOTEN  =       333.49749809 eV

  energy without entropy =      333.49749809  energy(sigma->0) =      333.49749809


--------------------------------------------------------------------------------------------------------




----------------------------------------- Iteration    1(   3)  ---------------------------------------


     EDDAV:  cpu time    0.52: real time    0.52
       DOS:  cpu time    0.00: real time    0.00
    --------------------------------------------
      LOOP:  cpu time    0.52: real time    0.53

 eigenvalue-minimisations  :   352
 total energy-change (2. order) :-0.2983962E+03  (-0.2862580E+03)
 number of electron      88.0000000 magnetization       8.0000000
 augmentation part       88.0000000 magnetization       8.0000000

 Free energy of the ion-electron system (eV)
  ---------------------------------------------------
  alpha Z        PSCENC =         8.49342427
  Ewald energy   TEWEN  =      7293.20365102
  -Hartree energ DENC   =    -15205.86005412
  -exchange      EXHF   =         0.00000000
  -V(xc)+E(xc)   XCENC  =       -88.58429731
  PAW double counting   =      8026.97742456    -7658.11687103
  entropy T*S    EENTRO =         0.00000000
  eigenvalues    EBANDS =      -638.60099014
  atomic energy  EATOM  =      8297.58904069
  ---------------------------------------------------
  free energy    TOTEN  =        35.10132794 eV

  energy without entropy =       35.10132794  energy(sigma->0) =       35.10132794


--------------------------------------------------------------------------------------------------------




----------------------------------------- Iteration    1(   4)  ---------------------------------------


     EDDAV:  cpu time    0.44: real time    0.44
       DOS:  cpu time    0.00: real time    0.00
    --------------------------------------------
      LOOP:  cpu time    0.44: real time    0.45

 eigenvalue-minimisations  :   288
 total energy-change (2. order) :-0.4590861E+02  (-0.4408945E+02)
 number of electron      88.0000000 magnetization       8.0000000
 augmentation part       88.0000000 magnetization       8.0000000

 Free energy of the ion-electron system (eV)
  ---------------------------------------------------
  alpha Z        PSCENC =         8.49342427
  Ewald energy   TEWEN  =      7293.20365102
  -Hartree energ DENC   =    -15205.86005412
  -exchange      EXHF   =         0.00000000
  -V(xc)+E(xc)   XCENC  =       -88.58429731
  PAW double counting   =      8026.97742456    -7658.11687103
  entropy T*S    EENTRO =         0.00000000
  eigenvalues    EBANDS =      -684.50960086
  atomic energy  EATOM  =      8297.58904069
  ---------------------------------------------------
  free energy    TOTEN  =       -10.80728278 eV

  energy without entropy =      -10.80728278  energy(sigma->0) =      -10.80728278


--------------------------------------------------------------------------------------------------------




----------------------------------------- Iteration    1(   5)  ---------------------------------------


     EDDAV:  cpu time    0.39: real time    0.39
       DOS:  cpu time    0.00: real time    0.00
    CHARGE:  cpu time    0.03: real time    0.03
    MIXING:  cpu time    0.00: real time    0.00
    --------------------------------------------
      LOOP:  cpu time    0.43: real time    0.44

 eigenvalue-minimisations  :   248
 total energy-change (2. order) :-0.1406768E+01  (-0.1403662E+01)
 number of electron      88.0000308 magnetization       6.6858399
 augmentation part       41.6176150 magnetization       6.8361473

 Broyden mixing:
  rms(total) = 0.17839E+01    rms(broyden)= 0.17836E+01
  rms(prec ) = 0.18180E+01
  weight for this iteration     100.00

 Free energy of the ion-electron system (eV)
  ---------------------------------------------------
  alpha Z        PSCENC =         8.49342427
  Ewald energy   TEWEN  =      7293.20365102
  -Hartree energ DENC   =    -15205.86005412
  -exchange      EXHF   =         0.00000000
  -V(xc)+E(xc)   XCENC  =       -88.58429731
  PAW double counting   =      8026.97742456    -7658.11687103
  entropy T*S    EENTRO =         0.00000000
  eigenvalues    EBANDS =      -685.91636921
  atomic energy  EATOM  =      8297.58904069
  ---------------------------------------------------
  free energy    TOTEN  =       -12.21405113 eV

  energy without entropy =      -12.21405113  energy(sigma->0) =      -12.21405113


--------------------------------------------------------------------------------------------------------




----------------------------------------- Iteration    1(   6)  ---------------------------------------


    POTLOK:  cpu time    0.17: real time    0.17
    SETDIJ:  cpu time    0.00: real time    0.01
     EDDAV:  cpu time    0.38: real time    0.38
       DOS:  cpu time    0.00: real time    0.00
    CHARGE:  cpu time    0.03: real time    0.03
    MIXING:  cpu time    0.00: real time    0.00
    --------------------------------------------
      LOOP:  cpu time    0.59: real time    0.60

 eigenvalue-minimisations  :   232
 total energy-change (2. order) : 0.1249641E+02  (-0.4051775E+01)
 number of electron      88.0000317 magnetization       5.9127285
 augmentation part       42.3391053 magnetization       3.3646834

 Broyden mixing:
  rms(total) = 0.89322E+00    rms(broyden)= 0.89312E+00
  rms(prec ) = 0.90686E+00
  weight for this iteration     100.00

 eigenvalues of (default mixing * dielectric matrix)
  average eigenvalue GAMMA=   0.8756
  0.8756

 Free energy of the ion-electron system (eV)
  ---------------------------------------------------
  alpha Z        PSCENC =         8.49342427
  Ewald energy   TEWEN  =      7293.20365102
  -Hartree energ DENC   =    -15184.22376478
  -exchange      EXHF   =         0.00000000
  -V(xc)+E(xc)   XCENC  =       -80.96235104
  PAW double counting   =      8366.90577220    -8004.34116710
  entropy T*S    EENTRO =         0.00000000
  eigenvalues    EBANDS =      -696.38224878
  atomic energy  EATOM  =      8297.58904069
  ---------------------------------------------------
  free energy    TOTEN  =         0.28235649 eV

  energy without entropy =        0.28235649  energy(sigma->0) =        0.28235649


--------------------------------------------------------------------------------------------------------




----------------------------------------- Iteration    1(   7)  ---------------------------------------


    POTLOK:  cpu time    0.17: real time    0.17
    SETDIJ:  cpu time    0.00: real time    0.01
     EDDAV:  cpu time    0.40: real time    0.40
       DOS:  cpu time    0.00: real time    0.00
    CHARGE:  cpu time    0.03: real time    0.03
    MIXING:  cpu time    0.00: real time    0.00
    --------------------------------------------
      LOOP:  cpu time    0.61: real time    0.62

 eigenvalue-minimisations  :   248
 total energy-change (2. order) :-0.7742162E+00  (-0.1813561E+00)
 number of electron      88.0000316 magnetization       4.8993623
 augmentation part       42.2562513 magnetization       2.4920967

 Broyden mixing:
  rms(total) = 0.47592E+00    rms(broyden)= 0.47590E+00
  rms(prec ) = 0.48296E+00
  weight for this iteration     100.00

 eigenvalues of (default mixing * dielectric matrix)
  average eigenvalue GAMMA=   1.0570
  0.7659  1.3482

 Free energy of the ion-electron system (eV)
  ---------------------------------------------------
  alpha Z        PSCENC =         8.49342427
  Ewald energy   TEWEN  =      7293.20365102
  -Hartree energ DENC   =    -15202.49094423
  -exchange      EXHF   =         0.00000000
  -V(xc)+E(xc)   XCENC  =       -81.25493936
  PAW double counting   =      8585.53386723    -8227.40999821
  entropy T*S    EENTRO =         0.00000000
  eigenvalues    EBANDS =      -674.15596117
  atomic energy  EATOM  =      8297.58904069
  ---------------------------------------------------
  free energy    TOTEN  =        -0.49185975 eV

  energy without entropy =       -0.49185975  energy(sigma->0) =       -0.49185975


--------------------------------------------------------------------------------------------------------




----------------------------------------- Iteration    1(   8)  ---------------------------------------


    POTLOK:  cpu time    0.17: real time    0.17
    SETDIJ:  cpu time    0.00: real time    0.01
     EDDAV:  cpu time    0.41: real time    0.40
       DOS:  cpu time    0.00: real time    0.00
    CHARGE:  cpu time    0.03: real time    0.03
    MIXING:  cpu time    0.01: real time    0.00
    --------------------------------------------
      LOOP:  cpu time    0.62: real time    0.63

 eigenvalue-minimisations  :   256
 total energy-change (2. order) :-0.3063111E+01  (-0.1870154E+00)
 number of electron      88.0000315 magnetization       4.3504802
 augmentation part       42.1914585 magnetization       2.0494174

 Broyden mixing:
  rms(total) = 0.20219E+00    rms(broyden)= 0.20218E+00
  rms(prec ) = 0.20622E+00
  weight for this iteration     100.00

 eigenvalues of (default mixing * dielectric matrix)
  average eigenvalue GAMMA=   1.1761
  1.9947  0.9059  0.6277

 Free energy of the ion-electron system (eV)
  ---------------------------------------------------
  alpha Z        PSCENC =         8.49342427
  Ewald energy   TEWEN  =      7293.20365102
  -Hartree energ DENC   =    -15215.85022611
  -exchange      EXHF   =         0.00000000
  -V(xc)+E(xc)   XCENC  =       -83.46063917
  PAW double counting   =      8803.21338376    -8449.02917867
  entropy T*S    EENTRO =         0.00000000
  eigenvalues    EBANDS =      -657.71442660
  atomic energy  EATOM  =      8297.58904069
  ---------------------------------------------------
  free energy    TOTEN  =        -3.55497081 eV

  energy without entropy =       -3.55497081  energy(sigma->0) =       -3.55497081


--------------------------------------------------------------------------------------------------------




----------------------------------------- Iteration    1(   9)  ---------------------------------------


    POTLOK:  cpu time    0.17: real time    0.17
    SETDIJ:  cpu time    0.00: real time    0.01
     EDDAV:  cpu time    0.41: real time    0.41
       DOS:  cpu time    0.00: real time    0.00
    CHARGE:  cpu time    0.03: real time    0.03
    MIXING:  cpu time    0.00: real time    0.01
    --------------------------------------------
      LOOP:  cpu time    0.62: real time    0.63

 eigenvalue-minimisations  :   256
 total energy-change (2. order) :-0.2036789E+01  (-0.5394117E-01)
 number of electron      88.0000315 magnetization       3.7990313
 augmentation part       42.1968852 magnetization       1.5493793

 Broyden mixing:
  rms(total) = 0.99283E-01    rms(broyden)= 0.99279E-01
  rms(prec ) = 0.10386E+00
  weight for this iteration     100.00

 eigenvalues of (default mixing * dielectric matrix)
  average eigenvalue GAMMA=   1.2212
  2.1519  0.6267  0.8176  1.2886

 Free energy of the ion-electron system (eV)
  ---------------------------------------------------
  alpha Z        PSCENC =         8.49342427
  Ewald energy   TEWEN  =      7293.20365102
  -Hartree energ DENC   =    -15215.67153968
  -exchange      EXHF   =         0.00000000
  -V(xc)+E(xc)   XCENC  =       -85.11019570
  PAW double counting   =      8856.07309476    -8502.84914487
  entropy T*S    EENTRO =         0.00000000
  eigenvalues    EBANDS =      -657.32009006
  atomic energy  EATOM  =      8297.58904069
  ---------------------------------------------------
  free energy    TOTEN  =        -5.59175957 eV

  energy without entropy =       -5.59175957  energy(sigma->0) =       -5.59175957


--------------------------------------------------------------------------------------------------------




----------------------------------------- Iteration    1(  10)  ---------------------------------------


    POTLOK:  cpu time    0.17: real time    0.17
    SETDIJ:  cpu time    0.01: real time    0.01
     EDDAV:  cpu time    0.40: real time    0.41
       DOS:  cpu time    0.00: real time    0.00
    CHARGE:  cpu time    0.03: real time    0.03
    MIXING:  cpu time    0.00: real time    0.01
    --------------------------------------------
      LOOP:  cpu time    0.62: real time    0.63

 eigenvalue-minimisations  :   256
 total energy-change (2. order) :-0.2344215E+01  (-0.6834915E-01)
 number of electron      88.0000315 magnetization       3.1180042
 augmentation part       42.2123041 magnetization       0.9375148

 Broyden mixing:
  rms(total) = 0.68250E-01    rms(broyden)= 0.68243E-01
  rms(prec ) = 0.70829E-01
  weight for this iteration     100.00

 eigenvalues of (default mixing * dielectric matrix)
  average eigenvalue GAMMA=   1.3525
  2.6633  1.6164  0.6334  0.9248  0.9248

 Free energy of the ion-electron system (eV)
  ---------------------------------------------------
  alpha Z        PSCENC =         8.49342427
  Ewald energy   TEWEN  =      7293.20365102
  -Hartree energ DENC   =    -15212.53861691
  -exchange      EXHF   =         0.00000000
  -V(xc)+E(xc)   XCENC  =       -87.06472803
  PAW double counting   =      8863.53209751    -8510.58739857
  entropy T*S    EENTRO =         0.00000000
  eigenvalues    EBANDS =      -660.56344421
  atomic energy  EATOM  =      8297.58904069
  ---------------------------------------------------
  free energy    TOTEN  =        -7.93597423 eV

  energy without entropy =       -7.93597423  energy(sigma->0) =       -7.93597423


--------------------------------------------------------------------------------------------------------




----------------------------------------- Iteration    1(  11)  ---------------------------------------


    POTLOK:  cpu time    0.17: real time    0.17
    SETDIJ:  cpu time    0.01: real time    0.01
     EDDAV:  cpu time    0.36: real time    0.37
       DOS:  cpu time    0.00: real time    0.00
    CHARGE:  cpu time    0.03: real time    0.03
    MIXING:  cpu time    0.01: real time    0.01
    --------------------------------------------
      LOOP:  cpu time    0.58: real time    0.59

 eigenvalue-minimisations  :   224
 total energy-change (2. order) :-0.2148265E+01  (-0.6456077E-01)
 number of electron      88.0000315 magnetization       2.7493413
 augmentation part       42.2291920 magnetization       0.6212477

 Broyden mixing:
  rms(total) = 0.42026E-01    rms(broyden)= 0.42014E-01
  rms(prec ) = 0.44036E-01
  weight for this iteration     100.00

 eigenvalues of (default mixing * dielectric matrix)
  average eigenvalue GAMMA=   1.3567
  2.8424  1.4838  1.4838  0.6383  0.8621  0.8299

 Free energy of the ion-electron system (eV)
  ---------------------------------------------------
  alpha Z        PSCENC =         8.49342427
  Ewald energy   TEWEN  =      7293.20365102
  -Hartree energ DENC   =    -15209.09562925
  -exchange      EXHF   =         0.00000000
  -V(xc)+E(xc)   XCENC  =       -88.96238649
  PAW double counting   =      8858.31034531    -8505.53394627
  entropy T*S    EENTRO =         0.00000000
  eigenvalues    EBANDS =      -664.08873842
  atomic energy  EATOM  =      8297.58904069
  ---------------------------------------------------
  free energy    TOTEN  =       -10.08423912 eV

  energy without entropy =      -10.08423912  energy(sigma->0) =      -10.08423912


--------------------------------------------------------------------------------------------------------




----------------------------------------- Iteration    1(  12)  ---------------------------------------


    POTLOK:  cpu time    0.17: real time    0.17
    SETDIJ:  cpu time    0.00: real time    0.01
     EDDAV:  cpu time    0.39: real time    0.39
       DOS:  cpu time    0.00: real time    0.00
    CHARGE:  cpu time    0.03: real time    0.03
    MIXING:  cpu time    0.00: real time    0.01
    --------------------------------------------
      LOOP:  cpu time    0.60: real time    0.61

 eigenvalue-minimisations  :   240
 total energy-change (2. order) :-0.8798339E+00  (-0.1496259E-01)
 number of electron      88.0000315 magnetization       2.3771062
 augmentation part       42.2222894 magnetization       0.2702302

 Broyden mixing:
  rms(total) = 0.31217E-01    rms(broyden)= 0.31208E-01
  rms(prec ) = 0.33279E-01
  weight for this iteration     100.00

 eigenvalues of (default mixing * dielectric matrix)
  average eigenvalue GAMMA=   1.4982
  3.7291  2.2332  1.4664  0.9799  0.8449  0.6254  0.6081

 Free energy of the ion-electron system (eV)
  ---------------------------------------------------
  alpha Z        PSCENC =         8.49342427
  Ewald energy   TEWEN  =      7293.20365102
  -Hartree energ DENC   =    -15207.06580514
  -exchange      EXHF   =         0.00000000
  -V(xc)+E(xc)   XCENC  =       -89.77471038
  PAW double counting   =      8842.43035214    -8489.53099328
  entropy T*S    EENTRO =         0.00000000
  eigenvalues    EBANDS =      -666.30903233
  atomic energy  EATOM  =      8297.58904069
  ---------------------------------------------------
  free energy    TOTEN  =       -10.96407299 eV

  energy without entropy =      -10.96407299  energy(sigma->0) =      -10.96407299


--------------------------------------------------------------------------------------------------------




----------------------------------------- Iteration    1(  13)  ---------------------------------------


    POTLOK:  cpu time    0.17: real time    0.17
    SETDIJ:  cpu time    0.01: real time    0.01
     EDDAV:  cpu time    0.38: real time    0.38
       DOS:  cpu time    0.00: real time    0.00
    CHARGE:  cpu time    0.03: real time    0.03
    MIXING:  cpu time    0.00: real time    0.01
    --------------------------------------------
      LOOP:  cpu time    0.60: real time    0.61

 eigenvalue-minimisations  :   240
 total energy-change (2. order) :-0.6083046E+00  (-0.7838448E-02)
 number of electron      88.0000315 magnetization       2.1948074
 augmentation part       42.2366271 magnetization       0.1015672

 Broyden mixing:
  rms(total) = 0.13924E-01    rms(broyden)= 0.13905E-01
  rms(prec ) = 0.15469E-01
  weight for this iteration     100.00

 eigenvalues of (default mixing * dielectric matrix)
  average eigenvalue GAMMA=   1.5530
  4.2556  2.4755  1.6093  1.1261  0.8567  0.8567  0.6358  0.6083

 Free energy of the ion-electron system (eV)
  ---------------------------------------------------
  alpha Z        PSCENC =         8.49342427
  Ewald energy   TEWEN  =      7293.20365102
  -Hartree energ DENC   =    -15203.53355798
  -exchange      EXHF   =         0.00000000
  -V(xc)+E(xc)   XCENC  =       -90.41531549
  PAW double counting   =      8824.00407313    -8470.90940705
  entropy T*S    EENTRO =         0.00000000
  eigenvalues    EBANDS =      -670.00428617
  atomic energy  EATOM  =      8297.58904069
  ---------------------------------------------------
  free energy    TOTEN  =       -11.57237757 eV

  energy without entropy =      -11.57237757  energy(sigma->0) =      -11.57237757


--------------------------------------------------------------------------------------------------------




----------------------------------------- Iteration    1(  14)  ---------------------------------------


    POTLOK:  cpu time    0.17: real time    0.17
    SETDIJ:  cpu time    0.01: real time    0.01
     EDDAV:  cpu time    0.38: real time    0.38
       DOS:  cpu time    0.00: real time    0.00
    CHARGE:  cpu time    0.03: real time    0.03
    MIXING:  cpu time    0.00: real time    0.01
    --------------------------------------------
      LOOP:  cpu time    0.59: real time    0.60

 eigenvalue-minimisations  :   232
 total energy-change (2. order) :-0.2269932E+00  (-0.1060033E-02)
 number of electron      88.0000315 magnetization       2.1141690
 augmentation part       42.2360566 magnetization       0.0893211

 Broyden mixing:
  rms(total) = 0.10677E-01    rms(broyden)= 0.10665E-01
  rms(prec ) = 0.12077E-01
  weight for this iteration     100.00

 eigenvalues of (default mixing * dielectric matrix)
  average eigenvalue GAMMA=   1.5003
  4.5609  2.4750  1.5568  1.3271  0.9064  0.8432  0.6354  0.5990  0.5990

 Free energy of the ion-electron system (eV)
  ---------------------------------------------------
  alpha Z        PSCENC =         8.49342427
  Ewald energy   TEWEN  =      7293.20365102
  -Hartree energ DENC   =    -15201.89610485
  -exchange      EXHF   =         0.00000000
  -V(xc)+E(xc)   XCENC  =       -90.66136384
  PAW double counting   =      8821.94985362    -8468.82115021
  entropy T*S    EENTRO =        -0.00001000
  eigenvalues    EBANDS =      -671.65671144
  atomic energy  EATOM  =      8297.58904069
  ---------------------------------------------------
  free energy    TOTEN  =       -11.79937074 eV

  energy without entropy =      -11.79936074  energy(sigma->0) =      -11.79936574


--------------------------------------------------------------------------------------------------------




----------------------------------------- Iteration    1(  15)  ---------------------------------------


    POTLOK:  cpu time    0.17: real time    0.17
    SETDIJ:  cpu time    0.00: real time    0.01
     EDDAV:  cpu time    0.34: real time    0.34
       DOS:  cpu time    0.00: real time    0.00
    CHARGE:  cpu time    0.03: real time    0.03
    MIXING:  cpu time    0.00: real time    0.01
    --------------------------------------------
      LOOP:  cpu time    0.56: real time    0.56

 eigenvalue-minimisations  :   200
 total energy-change (2. order) :-0.7777784E-01  (-0.1106917E-03)
 number of electron      88.0000312 magnetization       2.0923787
 augmentation part       42.2562151 magnetization       1.9880612

 Broyden mixing:
  rms(total) = 0.20750E+00    rms(broyden)= 0.20733E+00
  rms(prec ) = 0.24082E+00
  weight for this iteration     100.00

 eigenvalues of (default mixing * dielectric matrix)
  average eigenvalue GAMMA=   1.4351
  4.7526  2.5304  1.6283  1.6283  0.9071  0.9071  0.7325  0.6340  0.6057  0.0245

 Free energy of the ion-electron system (eV)
  ---------------------------------------------------
  alpha Z        PSCENC =         8.49342427
  Ewald energy   TEWEN  =      7293.20365102
  -Hartree energ DENC   =    -15201.18530321
  -exchange      EXHF   =         0.00000000
  -V(xc)+E(xc)   XCENC  =       -90.74947035
  PAW double counting   =      8822.71075531    -8469.57762620
  entropy T*S    EENTRO =        -0.00000000
  eigenvalues    EBANDS =      -672.36162011
  atomic energy  EATOM  =      8297.58904069
  ---------------------------------------------------
  free energy    TOTEN  =       -11.87714858 eV

  energy without entropy =      -11.87714858  energy(sigma->0) =      -11.87714858


--------------------------------------------------------------------------------------------------------




----------------------------------------- Iteration    1(  16)  ---------------------------------------


    POTLOK:  cpu time    0.17: real time    0.17
    SETDIJ:  cpu time    0.00: real time    0.01
     EDDAV:  cpu time    0.38: real time    0.38
       DOS:  cpu time    0.00: real time    0.00
    CHARGE:  cpu time    0.03: real time    0.03
    MIXING:  cpu time    0.00: real time    0.01
    --------------------------------------------
      LOOP:  cpu time    0.59: real time    0.60

 eigenvalue-minimisations  :   232
 total energy-change (2. order) :-0.4545447E-01  (-0.2579473E-03)
 number of electron      88.0000313 magnetization       2.0922452
 augmentation part       42.2561528 magnetization       1.9879114

 Broyden mixing:
  rms(total) = 0.21089E+00    rms(broyden)= 0.21088E+00
  rms(prec ) = 0.24465E+00
  weight for this iteration     100.00

 eigenvalues of (default mixing * dielectric matrix)
  average eigenvalue GAMMA=   1.3902
  4.7573  2.6221  1.7733  1.7733  0.8347  0.8347  0.8297  0.6391  0.6861  0.4876
  0.0544

 Free energy of the ion-electron system (eV)
  ---------------------------------------------------
  alpha Z        PSCENC =         8.49342427
  Ewald energy   TEWEN  =      7293.20365102
  -Hartree energ DENC   =    -15200.67922136
  -exchange      EXHF   =         0.00000000
  -V(xc)+E(xc)   XCENC  =       -90.79094284
  PAW double counting   =      8824.35960034    -8471.22972510
  entropy T*S    EENTRO =         0.00000000
  eigenvalues    EBANDS =      -672.86843008
  atomic energy  EATOM  =      8297.58904069
  ---------------------------------------------------
  free energy    TOTEN  =       -11.92260305 eV

  energy without entropy =      -11.92260305  energy(sigma->0) =      -11.92260305


--------------------------------------------------------------------------------------------------------




----------------------------------------- Iteration    1(  17)  ---------------------------------------


    POTLOK:  cpu time    0.17: real time    0.17
    SETDIJ:  cpu time    0.00: real time    0.01
     EDDAV:  cpu time    0.33: real time    0.33
       DOS:  cpu time    0.00: real time    0.00
    CHARGE:  cpu time    0.03: real time    0.03
    MIXING:  cpu time    0.00: real time    0.01
    --------------------------------------------
      LOOP:  cpu time    0.55: real time    0.55

 eigenvalue-minimisations  :   192
 total energy-change (2. order) :-0.2369105E-01  (-0.1820708E-03)
 number of electron      88.0000313 magnetization       2.1159670
 augmentation part       42.2569475 magnetization       2.0106114

 Broyden mixing:
  rms(total) = 0.21361E+00    rms(broyden)= 0.21361E+00
  rms(prec ) = 0.24792E+00
  weight for this iteration     100.00

 eigenvalues of (default mixing * dielectric matrix)
  average eigenvalue GAMMA=   1.4017
  4.8127  2.7217  1.7380  1.7380  1.0533  1.0533  0.9035  0.8041  0.7021  0.6291
  0.6082  0.0568

 Free energy of the ion-electron system (eV)
  ---------------------------------------------------
  alpha Z        PSCENC =         8.49342427
  Ewald energy   TEWEN  =      7293.20365102
  -Hartree energ DENC   =    -15200.19418481
  -exchange      EXHF   =         0.00000000
  -V(xc)+E(xc)   XCENC  =       -90.80943813
  PAW double counting   =      8824.85512348    -8471.72032035
  entropy T*S    EENTRO =         0.00000000
  eigenvalues    EBANDS =      -673.36359027
  atomic energy  EATOM  =      8297.58904069
  ---------------------------------------------------
  free energy    TOTEN  =       -11.94629411 eV

  energy without entropy =      -11.94629411  energy(sigma->0) =      -11.94629411


--------------------------------------------------------------------------------------------------------




----------------------------------------- Iteration    1(  18)  ---------------------------------------


    POTLOK:  cpu time    0.17: real time    0.17
    SETDIJ:  cpu time    0.00: real time    0.01
     EDDAV:  cpu time    0.36: real time    0.37
       DOS:  cpu time    0.00: real time    0.00
    CHARGE:  cpu time    0.03: real time    0.03
    MIXING:  cpu time    0.01: real time    0.01
    --------------------------------------------
      LOOP:  cpu time    0.58: real time    0.59

 eigenvalue-minimisations  :   224
 total energy-change (2. order) :-0.1852251E-01  (-0.2141237E-03)
 number of electron      88.0000313 magnetization       2.1484952
 augmentation part       42.2572425 magnetization       2.0409406

 Broyden mixing:
  rms(total) = 0.21877E+00    rms(broyden)= 0.21877E+00
  rms(prec ) = 0.25383E+00
  weight for this iteration     100.00

 eigenvalues of (default mixing * dielectric matrix)
  average eigenvalue GAMMA=   1.3784
  4.6199  2.7394  1.5063  1.5063  1.6348  1.6348  0.8672  0.8672  0.7461  0.6241
  0.6201  0.4958  0.0569

 Free energy of the ion-electron system (eV)
  ---------------------------------------------------
  alpha Z        PSCENC =         8.49342427
  Ewald energy   TEWEN  =      7293.20365102
  -Hartree energ DENC   =    -15199.64523270
  -exchange      EXHF   =         0.00000000
  -V(xc)+E(xc)   XCENC  =       -90.82036014
  PAW double counting   =      8824.97836308    -8471.84077261
  entropy T*S    EENTRO =         0.00000000
  eigenvalues    EBANDS =      -673.92293024
  atomic energy  EATOM  =      8297.58904069
  ---------------------------------------------------
  free energy    TOTEN  =       -11.96481662 eV

  energy without entropy =      -11.96481662  energy(sigma->0) =      -11.96481662


--------------------------------------------------------------------------------------------------------




----------------------------------------- Iteration    1(  19)  ---------------------------------------


    POTLOK:  cpu time    0.17: real time    0.17
    SETDIJ:  cpu time    0.00: real time    0.01
     EDDAV:  cpu time    0.31: real time    0.31
       DOS:  cpu time    0.00: real time    0.00
    CHARGE:  cpu time    0.03: real time    0.03
    MIXING:  cpu time    0.00: real time    0.01
    --------------------------------------------
      LOOP:  cpu time    0.53: real time    0.53

 eigenvalue-minimisations  :   176
 total energy-change (2. order) :-0.4098770E-02  (-0.5877514E-04)
 number of electron      88.0000313 magnetization       2.1348720
 augmentation part       42.2572740 magnetization       2.0254369

 Broyden mixing:
  rms(total) = 0.22283E+00    rms(broyden)= 0.22283E+00
  rms(prec ) = 0.25846E+00
  weight for this iteration     100.00

 eigenvalues of (default mixing * dielectric matrix)
  average eigenvalue GAMMA=   1.2938
  4.6698  2.7316  1.6514  1.6514  1.4487  1.4487  0.8675  0.8675  0.7490  0.6245
  0.6186  0.5143  0.2138  0.0569

 Free energy of the ion-electron system (eV)
  ---------------------------------------------------
  alpha Z        PSCENC =         8.49342427
  Ewald energy   TEWEN  =      7293.20365102
  -Hartree energ DENC   =    -15199.36355159
  -exchange      EXHF   =         0.00000000
  -V(xc)+E(xc)   XCENC  =       -90.81851950
  PAW double counting   =      8825.10372132    -8471.97034398
  entropy T*S    EENTRO =         0.00000000
  eigenvalues    EBANDS =      -674.20633763
  atomic energy  EATOM  =      8297.58904069
  ---------------------------------------------------
  free energy    TOTEN  =       -11.96891539 eV

  energy without entropy =      -11.96891539  energy(sigma->0) =      -11.96891539


--------------------------------------------------------------------------------------------------------




----------------------------------------- Iteration    1(  20)  ---------------------------------------


    POTLOK:  cpu time    0.17: real time    0.17
    SETDIJ:  cpu time    0.00: real time    0.01
     EDDAV:  cpu time    0.28: real time    0.28
       DOS:  cpu time    0.00: real time    0.00
    CHARGE:  cpu time    0.03: real time    0.03
    MIXING:  cpu time    0.01: real time    0.01
    --------------------------------------------
      LOOP:  cpu time    0.50: real time    0.50

 eigenvalue-minimisations  :   152
 total energy-change (2. order) : 0.5078000E-03  (-0.8687693E-05)
 number of electron      88.0000313 magnetization       2.1825677
 augmentation part       42.2572206 magnetization       2.0738521

 Broyden mixing:
  rms(total) = 0.22138E+00    rms(broyden)= 0.22138E+00
  rms(prec ) = 0.25682E+00
  weight for this iteration     100.00

 eigenvalues of (default mixing * dielectric matrix)
  average eigenvalue GAMMA=   1.3077
  4.4695  2.7056  1.6899  1.6899  1.6401  1.6401  0.7449  0.7449  0.8633  0.8633
  0.7426  0.6279  0.6140  0.5220  0.0569

 Free energy of the ion-electron system (eV)
  ---------------------------------------------------
  alpha Z        PSCENC =         8.49342427
  Ewald energy   TEWEN  =      7293.20365102
  -Hartree energ DENC   =    -15199.46001854
  -exchange      EXHF   =         0.00000000
  -V(xc)+E(xc)   XCENC  =       -90.81980610
  PAW double counting   =      8825.15405584    -8472.01987866
  entropy T*S    EENTRO =         0.00000000
  eigenvalues    EBANDS =      -674.10887612
  atomic energy  EATOM  =      8297.58904069
  ---------------------------------------------------
  free energy    TOTEN  =       -11.96840759 eV

  energy without entropy =      -11.96840759  energy(sigma->0) =      -11.96840759


--------------------------------------------------------------------------------------------------------




----------------------------------------- Iteration    1(  21)  ---------------------------------------


    POTLOK:  cpu time    0.18: real time    0.17
    SETDIJ:  cpu time    0.00: real time    0.01
     EDDAV:  cpu time    0.33: real time    0.33
       DOS:  cpu time    0.00: real time    0.00
    CHARGE:  cpu time    0.03: real time    0.03
    MIXING:  cpu time    0.01: real time    0.01
    --------------------------------------------
      LOOP:  cpu time    0.55: real time    0.55

 eigenvalue-minimisations  :   192
 total energy-change (2. order) :-0.3509697E-02  (-0.6468954E-04)
 number of electron      88.0000313 magnetization       2.1813919
 augmentation part       42.2577168 magnetization       2.0705425

 Broyden mixing:
  rms(total) = 0.22684E+00    rms(broyden)= 0.22684E+00
  rms(prec ) = 0.26311E+00
  weight for this iteration     100.00

 eigenvalues of (default mixing * dielectric matrix)
  average eigenvalue GAMMA=   1.2663
  4.5571  2.7142  1.6490  1.6490  1.6361  1.6361  0.7665  0.6773  0.6773  0.8646
  0.8646  0.7384  0.6297  0.6138  0.5304  0.0569

 Free energy of the ion-electron system (eV)
  ---------------------------------------------------
  alpha Z        PSCENC =         8.49342427
  Ewald energy   TEWEN  =      7293.20365102
  -Hartree energ DENC   =    -15199.08160305
  -exchange      EXHF   =         0.00000000
  -V(xc)+E(xc)   XCENC  =       -90.81581148
  PAW double counting   =      8825.33532314    -8472.20839003
  entropy T*S    EENTRO =         0.00000000
  eigenvalues    EBANDS =      -674.48755184
  atomic energy  EATOM  =      8297.58904069
  ---------------------------------------------------
  free energy    TOTEN  =       -11.97191728 eV

  energy without entropy =      -11.97191728  energy(sigma->0) =      -11.97191728


--------------------------------------------------------------------------------------------------------




----------------------------------------- Iteration    1(  22)  ---------------------------------------


    POTLOK:  cpu time    0.17: real time    0.17
    SETDIJ:  cpu time    0.01: real time    0.01
     EDDAV:  cpu time    0.30: real time    0.30
       DOS:  cpu time    0.00: real time    0.00
    --------------------------------------------
      LOOP:  cpu time    0.48: real time    0.49

 eigenvalue-minimisations  :   168
 total energy-change (2. order) : 0.3566542E-05  (-0.6286498E-05)
 number of electron      88.0000313 magnetization       2.1813919
 augmentation part       42.2577168 magnetization       2.0705425

 Free energy of the ion-electron system (eV)
  ---------------------------------------------------
  alpha Z        PSCENC =         8.49342427
  Ewald energy   TEWEN  =      7293.20365102
  -Hartree energ DENC   =    -15199.08692961
  -exchange      EXHF   =         0.00000000
  -V(xc)+E(xc)   XCENC  =       -90.81599541
  PAW double counting   =      8825.32815824    -8472.20098084
  entropy T*S    EENTRO =         0.00000000
  eigenvalues    EBANDS =      -674.48228208
  atomic energy  EATOM  =      8297.58904069
  ---------------------------------------------------
  free energy    TOTEN  =       -11.97191372 eV

  energy without entropy =      -11.97191372  energy(sigma->0) =      -11.97191372


--------------------------------------------------------------------------------------------------------




 average (electrostatic) potential at core
  the test charge radii are     1.1249
  (the norm of the test charge is              1.0000)
       1 -82.5390       2 -82.6161       3 -82.6597       4 -82.5786       5 -82.7054
       6 -82.7483       7 -82.5391       8 -82.2955
 
 
 
 E-fermi :  -3.7287     XC(G=0):  -0.5283     alpha+bet : -0.2865


 spin component 1

 k-point     1 :       0.0000    0.0000    0.0000
  band No.  band energies     occupation 
      1     -10.0195      1.00000
      2      -9.7480      1.00000
      3      -9.4788      1.00000
      4      -9.4231      1.00000
      5      -9.3101      1.00000
      6      -9.1614      1.00000
      7      -9.0143      1.00000
      8      -8.9794      1.00000
      9      -8.8923      1.00000
     10      -8.8829      1.00000
     11      -8.8394      1.00000
     12      -8.7301      1.00000
     13      -8.5351      1.00000
     14      -8.4041      1.00000
     15      -8.2771      1.00000
     16      -8.2182      1.00000
     17      -8.0729      1.00000
     18      -7.9509      1.00000
     19      -7.8174      1.00000
     20      -7.7392      1.00000
     21      -7.6255      1.00000
     22      -7.5922      1.00000
     23      -7.4789      1.00000
     24      -7.4638      1.00000
     25      -7.4203      1.00000
     26      -7.3748      1.00000
     27      -7.3122      1.00000
     28      -7.2946      1.00000
     29      -7.1659      1.00000
     30      -7.1555      1.00000
     31      -7.1463      1.00000
     32      -7.0227      1.00000
     33      -6.9676      1.00000
     34      -6.9034      1.00000
     35      -6.8911      1.00000
     36      -6.8409      1.00000
     37      -6.7905      1.00000
     38      -6.7562      1.00000
     39      -6.6465      1.00000
     40      -6.5604      1.00000
     41      -6.3360      1.00000
     42      -5.6572      1.00000
     43      -5.0333      1.00000
     44      -4.1295      1.00000
     45      -3.7134      0.00000
     46      -2.8527      0.00000
     47      -2.5050      0.00000
     48      -1.7987      0.00000
     49      -1.5471      0.00000
     50      -1.4964      0.00000
     51      -1.3512      0.00000
     52      -0.8578      0.00000
     53      -0.5580      0.00000
     54      -0.2155      0.00000
     55      -0.1402      0.00000
     56       0.0947      0.00000

 spin component 2

 k-point     1 :       0.0000    0.0000    0.0000
  band No.  band energies     occupation 
      1      -9.9391      1.00000
      2      -9.6808      1.00000
      3      -9.4221      1.00000
      4      -9.3514      1.00000
      5      -9.2493      1.00000
      6      -9.0879      1.00000
      7      -8.9609      1.00000
      8      -8.8718      1.00000
      9      -8.8280      1.00000
     10      -8.8112      1.00000
     11      -8.7735      1.00000
     12      -8.6616      1.00000
     13      -8.4653      1.00000
     14      -8.3094      1.00000
     15      -8.1946      1.00000
     16      -8.0952      1.00000
     17      -8.0146      1.00000
     18      -7.8892      1.00000
     19      -7.7571      1.00000
     20      -7.6892      1.00000
     21      -7.5649      1.00000
     22      -7.5376      1.00000
     23      -7.4271      1.00000
     24      -7.4077      1.00000
     25      -7.3482      1.00000
     26      -7.2903      1.00000
     27      -7.2128      1.00000
     28      -7.2009      1.00000
     29      -7.1109      1.00000
     30      -7.1005      1.00000
     31      -7.0720      1.00000
     32      -6.9576      1.00000
     33      -6.8991      1.00000
     34      -6.8381      1.00000
     35      -6.8194      1.00000
     36      -6.7634      1.00000
     37      -6.7183      1.00000
     38      -6.6650      1.00000
     39      -6.5761      1.00000
     40      -6.5007      1.00000
     41      -6.2771      1.00000
     42      -5.4706      1.00000
     43      -4.8690      1.00000
     44      -3.7433      1.00000
     45      -3.3370      0.00000
     46      -2.7145      0.00000
     47      -2.3675      0.00000
     48      -1.4548      0.00000
     49      -1.2407      0.00000
     50      -1.1083      0.00000
     51      -0.9026      0.00000
     52      -0.6256      0.00000
     53      -0.3711      0.00000
     54      -0.0377      0.00000
     55       0.2620      0.00000
     56       0.3400      0.00000


--------------------------------------------------------------------------------------------------------


 soft charge-density along one line, spin component           1
         0         1         2         3         4         5         6         7         8         9
 total charge-density along one line
 
 soft charge-density along one line, spin component           2
         0         1         2         3         4         5         6         7         8         9
 total charge-density along one line
 
 pseudopotential strength for first ion, spin component:           1
-10.490  -0.008  -0.001   0.007  -0.002 -10.457  -0.008  -0.001
 -0.008 -10.500  -0.004  -0.002  -0.002  -0.008 -10.467  -0.004
 -0.001  -0.004 -10.507  -0.005   0.004  -0.001  -0.004 -10.474
  0.007  -0.002  -0.005 -10.500  -0.007   0.006  -0.001  -0.004
 -0.002  -0.002   0.004  -0.007 -10.483  -0.002  -0.002   0.004
-10.457  -0.008  -0.001   0.006  -0.002 -10.400  -0.008  -0.001
 -0.008 -10.467  -0.004  -0.001  -0.002  -0.008 -10.410  -0.003
 -0.001  -0.004 -10.474  -0.004   0.004  -0.001  -0.003 -10.417
  0.006  -0.001  -0.004 -10.467  -0.007   0.006  -0.001  -0.004
 -0.002  -0.002   0.004  -0.007 -10.450  -0.002  -0.002   0.003
  0.001  -0.002   0.003   0.003   0.001   0.001  -0.002   0.003
  0.002  -0.003   0.005   0.004   0.002   0.002  -0.003   0.005
 -0.004  -0.014  -0.001  -0.000  -0.002  -0.004  -0.013  -0.001
 -0.000   0.001  -0.015  -0.003   0.000  -0.000   0.001  -0.015
  0.002  -0.000   0.002  -0.013  -0.003   0.002  -0.000   0.002
 -0.003  -0.015  -0.001  -0.000  -0.001  -0.003  -0.014  -0.001
 -0.000   0.001  -0.017  -0.002   0.000  -0.000   0.001  -0.016
  0.002  -0.000   0.002  -0.014  -0.003   0.002  -0.000   0.002
 pseudopotential strength for first ion, spin component:           2
-10.488  -0.004   0.003   0.006  -0.003 -10.455  -0.004   0.003
 -0.004 -10.496  -0.000  -0.003  -0.002  -0.004 -10.463  -0.000
  0.003  -0.000 -10.501  -0.003   0.004   0.003  -0.000 -10.468
  0.006  -0.003  -0.003 -10.497  -0.006   0.006  -0.003  -0.003
 -0.003  -0.002   0.004  -0.006 -10.483  -0.002  -0.002   0.004
-10.455  -0.004   0.003   0.006  -0.002 -10.399  -0.004   0.002
 -0.004 -10.463  -0.000  -0.003  -0.002  -0.004 -10.407  -0.000
  0.003  -0.000 -10.468  -0.003   0.004   0.002  -0.000 -10.411
  0.006  -0.003  -0.003 -10.464  -0.006   0.005  -0.003  -0.003
 -0.002  -0.002   0.004  -0.006 -10.451  -0.002  -0.002   0.003
  0.002  -0.002   0.003   0.003   0.002   0.002  -0.002   0.003
  0.003  -0.004   0.004   0.005   0.003   0.003  -0.004   0.004
 -0.004  -0.014  -0.001  -0.000  -0.002  -0.004  -0.013  -0.001
 -0.000   0.002  -0.016  -0.003   0.000  -0.000   0.001  -0.015
  0.002  -0.000   0.003  -0.014  -0.004   0.002  -0.000   0.002
 -0.004  -0.017  -0.002  -0.000  -0.002  -0.004  -0.015  -0.001
 -0.000   0.002  -0.019  -0.003   0.000  -0.000   0.001  -0.017
  0.002  -0.000   0.003  -0.016  -0.004   0.002  -0.000   0.002
 total augmentation occupancy for first ion, spin component:           1
  2.776   0.319   0.186   0.036   0.060  -0.852  -0.321  -0.168   0.036  -0.090  -0.020   0.015  -0.149  -0.048   0.020   0.005
  0.319   3.124   0.023   0.119   0.223  -0.321  -1.161  -0.051  -0.150  -0.234   0.339  -0.061  -0.247   0.035  -0.031   0.005
  0.186   0.023   3.369   0.006  -0.224  -0.167  -0.051  -1.405  -0.016   0.259  -0.209   0.096  -0.058  -0.261   0.140  -0.000
  0.036   0.119   0.006   2.962   0.296   0.037  -0.150  -0.016  -0.999  -0.304  -0.434   0.116  -0.049  -0.089  -0.187   0.001
  0.060   0.223  -0.224   0.296   2.884  -0.089  -0.234   0.259  -0.305  -0.863  -0.212   0.045  -0.084   0.019  -0.174   0.003
 -0.852  -0.321  -0.167   0.037  -0.089   0.897   0.324   0.153  -0.098   0.116   0.036  -0.014   0.161   0.043  -0.028  -0.009
 -0.321  -1.161  -0.051  -0.150  -0.234   0.324   1.176   0.077   0.178   0.245  -0.304   0.060   0.266  -0.037   0.031  -0.016
 -0.168  -0.051  -1.405  -0.016   0.259   0.153   0.077   1.420   0.026  -0.290   0.185  -0.076   0.059   0.278  -0.145  -0.002
  0.036  -0.150  -0.016  -0.999  -0.305  -0.098   0.178   0.026   1.011   0.314   0.379  -0.105   0.045   0.098   0.206  -0.002
 -0.090  -0.234   0.259  -0.304  -0.863   0.116   0.245  -0.290   0.314   0.822   0.202  -0.048   0.089  -0.021   0.182  -0.005
 -0.020   0.339  -0.209  -0.434  -0.212   0.036  -0.304   0.185   0.379   0.202   1.818  -0.307  -0.101   0.278   0.213   0.006
  0.015  -0.061   0.096   0.116   0.045  -0.014   0.060  -0.076  -0.105  -0.048  -0.307   0.062   0.012  -0.063  -0.040  -0.001
 -0.149  -0.247  -0.058  -0.049  -0.084   0.161   0.266   0.059   0.045   0.089  -0.101   0.012   0.089   0.001   0.006  -0.005
 -0.048   0.035  -0.261  -0.089   0.019   0.043  -0.037   0.278   0.098  -0.021   0.278  -0.063   0.001   0.102   0.003   0.001
  0.020  -0.031   0.140  -0.187  -0.174  -0.028   0.031  -0.145   0.206   0.182   0.213  -0.040   0.006   0.003   0.095  -0.000
  0.005   0.005  -0.000   0.001   0.003  -0.009  -0.016  -0.002  -0.002  -0.005   0.006  -0.001  -0.005   0.001  -0.000   0.000
  0.001  -0.004   0.007   0.006   0.000  -0.001   0.005  -0.017  -0.009   0.000  -0.022   0.005   0.001  -0.007  -0.001  -0.000
 -0.000   0.001  -0.005   0.005   0.009   0.002  -0.001   0.007  -0.014  -0.012  -0.015   0.003  -0.000  -0.001  -0.006   0.000
 total augmentation occupancy for first ion, spin component:           2
 -0.132  -0.020  -0.024  -0.015  -0.003   0.069   0.017   0.018   0.011   0.003   0.009  -0.006  -0.003   0.003   0.003  -0.000
 -0.020  -0.151  -0.011   0.008   0.001   0.017   0.085   0.008  -0.003   0.002  -0.013  -0.002  -0.002  -0.000  -0.003  -0.000
 -0.024  -0.011  -0.165  -0.011   0.003   0.018   0.008   0.098   0.008  -0.005   0.000   0.002   0.002  -0.003   0.002  -0.000
 -0.015   0.008  -0.011  -0.138  -0.017   0.011  -0.003   0.008   0.074   0.013   0.005   0.008   0.001  -0.001  -0.005   0.000
 -0.003   0.001   0.003  -0.017  -0.136   0.003   0.002  -0.005   0.013   0.072   0.007   0.002  -0.002   0.002  -0.003  -0.000
  0.069   0.017   0.018   0.011   0.003  -0.009  -0.014  -0.012  -0.007  -0.002  -0.005   0.002  -0.001  -0.002  -0.001  -0.000
  0.017   0.085   0.008  -0.003   0.002  -0.014  -0.021  -0.006  -0.002  -0.005   0.013   0.001  -0.002   0.001   0.003  -0.000
  0.018   0.008   0.098   0.008  -0.005  -0.012  -0.006  -0.033  -0.005   0.005  -0.006   0.003  -0.002  -0.003   0.000  -0.000
  0.011  -0.003   0.008   0.074   0.013  -0.007  -0.002  -0.005  -0.012  -0.010  -0.014   0.002  -0.001  -0.003   0.000  -0.000
  0.003   0.002  -0.005   0.013   0.072  -0.002  -0.005   0.005  -0.010  -0.011  -0.009   0.000   0.000  -0.001  -0.001  -0.000
  0.009  -0.013   0.000   0.005   0.007  -0.005   0.013  -0.006  -0.014  -0.009   0.069  -0.019   0.000  -0.004  -0.005   0.000
 -0.006  -0.002   0.002   0.008   0.002   0.002   0.001   0.003   0.002   0.000  -0.019   0.004   0.001  -0.001  -0.001  -0.000
 -0.003  -0.002   0.002   0.001  -0.002  -0.001  -0.002  -0.002  -0.001   0.000   0.000   0.001   0.001   0.001   0.001  -0.000
  0.003  -0.000  -0.003  -0.001   0.002  -0.002   0.001  -0.003  -0.003  -0.001  -0.004  -0.001   0.001  -0.001  -0.002  -0.000
  0.003  -0.003   0.002  -0.005  -0.003  -0.001   0.003   0.000   0.000  -0.001  -0.005  -0.001   0.001  -0.002   0.000  -0.000
 -0.000  -0.000  -0.000   0.000  -0.000  -0.000  -0.000  -0.000  -0.000  -0.000   0.000  -0.000  -0.000  -0.000  -0.000   0.000
 -0.000   0.000  -0.000  -0.001  -0.000   0.000  -0.000  -0.000   0.000   0.000  -0.000   0.000  -0.000   0.000   0.000   0.000
  0.000   0.000   0.000  -0.000  -0.000   0.000  -0.000   0.000  -0.000   0.000  -0.000   0.000  -0.000   0.000  -0.000  -0.000


------------------------ aborting loop because EDIFF is reached ----------------------------------------


    CHARGE:  cpu time    0.03: real time    0.03
    FORLOC:  cpu time    0.00: real time    0.00
    FORNL :  cpu time    0.13: real time    0.13
    STRESS:  cpu time    0.15: real time    0.15
    FORCOR:  cpu time    0.17: real time    0.17
    FORHAR:  cpu time    0.02: real time    0.02
    MIXING:  cpu time    0.01: real time    0.01
    OFIELD:  cpu time    0.00: real time    0.00

  FORCE on cell =-STRESS in cart. coord.  units (eV):
  Direction    XX          YY          ZZ          XY          YZ          ZX
  --------------------------------------------------------------------------------------
  Alpha Z     8.49342     8.49342     8.49342
  Ewald    2930.14367  1200.86081  3162.19520   374.31280 -1530.35101  1180.12867
  Hartree  5449.10570  4086.51737  5688.16614   287.11479 -1189.55839   934.01606
  E(xc)    -464.63522  -465.74862  -464.85461     0.22284    -0.97439     0.68640
  Local   -9666.14660 -6592.12814-10138.91099  -658.80027  2701.35824 -2101.04304
  n-local   -77.86459   -75.86094   -76.27197    -0.29466     1.58765    -0.62403
  augment   732.81105   735.15415   732.62490    -0.49679     2.71936    -1.74683
  Kinetic  1097.15295  1104.76847  1098.32024    -1.72636     7.56174    -4.76748
  Fock        0.00000     0.00000     0.00000     0.00000     0.00000     0.00000
  -------------------------------------------------------------------------------------
  Total       9.06038     2.05653     9.76234     0.33235    -7.65680     6.64975
  in kB       2.26488     0.51408     2.44036     0.08308    -1.91402     1.66228
  external pressure =        1.74 kB  Pullay stress =        0.00 kB


 VOLUME and BASIS-vectors are now :
 -----------------------------------------------------------------------------
  energy-cutoff  :      249.84
  volume of cell :     6409.31
      direct lattice vectors                 reciprocal lattice vectors
    18.575354551  0.000000000  0.000000000     0.053834773  0.000000000  0.000000000
     0.000000000 18.575354551  0.000000000     0.000000000  0.053834773  0.000000000
     0.000000000  0.000000000 18.575354551     0.000000000  0.000000000  0.053834773

  length of vectors
    18.575354551 18.575354551 18.575354551     0.053834773  0.053834773  0.053834773


 FORCES acting on ions
    electron-ion (+dipol)            ewald-force                    non-local-force                 convergence-correction
 -----------------------------------------------------------------------------------------------
   0.505E+03 -.223E+03 0.753E+03   -.493E+03 0.214E+03 -.744E+03   -.423E+01 0.240E+01 -.516E+01   -.827E+01 0.573E+01 -.538E+01
   -.506E+03 -.537E+03 0.547E+03   0.502E+03 0.533E+03 -.542E+03   0.380E+01 0.405E+01 -.440E+01   0.118E+01 0.111E+01 -.154E+01
   -.283E+03 0.676E+03 0.479E+03   0.282E+03 -.678E+03 -.485E+03   0.197E+01 -.241E+01 0.880E+00   0.349E+00 0.288E+01 0.510E+01
   0.819E+03 0.394E+03 -.165E+02   -.812E+03 -.391E+03 0.178E+02   -.599E+01 -.247E+01 -.645E+00   -.257E+01 -.900E+00 -.788E+00
   0.382E+03 -.728E+03 -.340E+03   -.381E+03 0.731E+03 0.347E+03   -.170E+01 0.149E+01 0.124E+01   -.867E+00 -.366E+01 -.696E+01
   -.653E+03 -.308E+03 -.214E+03   0.646E+03 0.311E+03 0.212E+03   0.213E+01 0.271E+01 -.111E+01   0.525E+01 -.368E+01 0.219E+01
   0.260E+03 0.442E+03 -.636E+03   -.260E+03 -.436E+03 0.631E+03   -.193E+01 -.237E+01 0.337E+01   0.241E+01 -.381E+01 0.233E+01
   -.524E+03 0.286E+03 -.573E+03   0.517E+03 -.284E+03 0.563E+03   0.525E+01 -.333E+01 0.590E+01   0.356E+01 -.909E+00 0.647E+01
 -----------------------------------------------------------------------------------------------
   -.411E+00 0.323E+01 -.156E+01   -.114E-12 -.114E-12 0.114E-12   -.719E+00 0.814E-01 0.734E-01   0.104E+01 -.324E+01 0.141E+01
 
 
 POSITION                                       TOTAL-FORCE (eV/Angst)
 -----------------------------------------------------------------------------------
      6.51341      8.63139      5.77340        -0.703183     -0.017357     -1.368754
      8.98449      9.42647      6.26405         0.830996      0.739725     -0.666874
      8.21492      6.91161      6.81732         0.585623     -1.263676     -0.437559
      5.75683      7.04841      7.77760        -1.548016     -0.607207     -0.152708
      7.08331      9.34676      8.18503        -0.720035      1.056006      1.408270
      9.43662      8.39554      8.64214         0.449406      2.179419     -1.523174
      7.47798      6.77906      9.64334        -0.014365     -0.055649      0.435029
      9.99567      6.92399     10.36036         1.119573     -2.031262      2.305770
 -----------------------------------------------------------------------------------
    total drift:                               -0.091694      0.074764     -0.073063


--------------------------------------------------------------------------------------------------------



  FREE ENERGIE OF THE ION-ELECTRON SYSTEM (eV)
  ---------------------------------------------------
  free  energy   TOTEN  =       -11.97191372 eV

  energy  without entropy=      -11.97191372  energy(sigma->0) =      -11.97191372
 


--------------------------------------------------------------------------------------------------------


    POTLOK:  cpu time    0.18: real time    0.18


--------------------------------------------------------------------------------------------------------




--------------------------------------------------------------------------------------------------------


    WAVPRE:  cpu time    0.01: real time    0.01
 FEWALD executed in parallel
    FEWALD:  cpu time    0.00: real time    0.00
    ORTHCH:  cpu time    0.02: real time    0.02
     LOOP+:  cpu time   13.08: real time   13.24


----------------------------------------- Iteration    2(   1)  ---------------------------------------


    POTLOK:  cpu time    0.17: real time    0.17
    SETDIJ:  cpu time    0.01: real time    0.01
     EDDAV:  cpu time    0.36: real time    0.37
       DOS:  cpu time    0.00: real time    0.00
    CHARGE:  cpu time    0.03: real time    0.03
    MIXING:  cpu time    0.01: real time    0.01
    --------------------------------------------
      LOOP:  cpu time    0.58: real time    0.60

 eigenvalue-minimisations  :   224
 total energy-change (2. order) :-0.2591183E+00  (-0.2011882E+01)
 number of electron      88.0000601 magnetization       1.8146083
 augmentation part       42.2874500 magnetization       1.7041659

 Broyden mixing:
  rms(total) = 0.23728E+00    rms(broyden)= 0.23725E+00
  rms(prec ) = 0.27150E+00
  weight for this iteration     100.00

 Free energy of the ion-electron system (eV)
  ---------------------------------------------------
  alpha Z        PSCENC =         8.49342427
  Ewald energy   TEWEN  =      7195.65002757
  -Hartree energ DENC   =    -15103.33788223
  -exchange      EXHF   =         0.00000000
  -V(xc)+E(xc)   XCENC  =       -91.09356521
  PAW double counting   =      8825.28431228    -8472.15550423
  entropy T*S    EENTRO =         0.00000000
  eigenvalues    EBANDS =      -672.66088878
  atomic energy  EATOM  =      8297.58904069
  ---------------------------------------------------
  free energy    TOTEN  =       -12.23103563 eV

  energy without entropy =      -12.23103563  energy(sigma->0) =      -12.23103563


--------------------------------------------------------------------------------------------------------




----------------------------------------- Iteration    2(   2)  ---------------------------------------


    POTLOK:  cpu time    0.17: real time    0.17
    SETDIJ:  cpu time    0.01: real time    0.01
     EDDAV:  cpu time    0.36: real time    0.37
       DOS:  cpu time    0.00: real time    0.00
    CHARGE:  cpu time    0.03: real time    0.03
    MIXING:  cpu time    0.00: real time    0.00
    --------------------------------------------
      LOOP:  cpu time    0.58: real time    0.58

 eigenvalue-minimisations  :   224
 total energy-change (2. order) : 0.1325616E+01  (-0.2289996E+00)
 number of electron      88.0000602 magnetization       1.8316555
 augmentation part       42.2705102 magnetization      -0.2411161

 Broyden mixing:
  rms(total) = 0.21641E+00    rms(broyden)= 0.21624E+00
  rms(prec ) = 0.22360E+00
  weight for this iteration     100.00

 eigenvalues of (default mixing * dielectric matrix)
  average eigenvalue GAMMA=   0.4478
  0.4478

 Free energy of the ion-electron system (eV)
  ---------------------------------------------------
  alpha Z        PSCENC =         8.49342427
  Ewald energy   TEWEN  =      7195.65002757
  -Hartree energ DENC   =    -15105.96078825
  -exchange      EXHF   =         0.00000000
  -V(xc)+E(xc)   XCENC  =       -90.07546674
  PAW double counting   =      8806.96717010    -8453.47642246
  entropy T*S    EENTRO =         0.00000000
  eigenvalues    EBANDS =      -670.09240468
  atomic energy  EATOM  =      8297.58904069
  ---------------------------------------------------
  free energy    TOTEN  =       -10.90541950 eV

  energy without entropy =      -10.90541950  energy(sigma->0) =      -10.90541950


--------------------------------------------------------------------------------------------------------




----------------------------------------- Iteration    2(   3)  ---------------------------------------


    POTLOK:  cpu time    0.17: real time    0.17
    SETDIJ:  cpu time    0.00: real time    0.01
     EDDAV:  cpu time    0.39: real time    0.39
       DOS:  cpu time    0.00: real time    0.00
    CHARGE:  cpu time    0.03: real time    0.03
    MIXING:  cpu time    0.00: real time    0.00
    --------------------------------------------
      LOOP:  cpu time    0.60: real time    0.60

 eigenvalue-minimisations  :   240
 total energy-change (2. order) :-0.8434531E+00  (-0.2985589E-01)
 number of electron      88.0000602 magnetization       1.8493234
 augmentation part       42.2561729 magnetization      -0.2202712

 Broyden mixing:
  rms(total) = 0.78609E-01    rms(broyden)= 0.78579E-01
  rms(prec ) = 0.87652E-01
[...]
 number of electron      88.0000237 magnetization       0.0000000
 augmentation part       42.3864814 magnetization      -0.0000002

 Free energy of the ion-electron system (eV)
  ---------------------------------------------------
  alpha Z        PSCENC =         8.49342427
  Ewald energy   TEWEN  =      6719.30598943
  -Hartree energ DENC   =    -14658.66149453
  -exchange      EXHF   =         0.00000000
  -V(xc)+E(xc)   XCENC  =       -92.37613093
  PAW double counting   =      8538.49714773    -8180.66285074
  entropy T*S    EENTRO =         0.00000000
  eigenvalues    EBANDS =      -646.13578650
  atomic energy  EATOM  =      8297.58904069
  ---------------------------------------------------
  free energy    TOTEN  =       -13.95066057 eV

  energy without entropy =      -13.95066057  energy(sigma->0) =      -13.95066057


--------------------------------------------------------------------------------------------------------




 average (electrostatic) potential at core
  the test charge radii are     1.1249
  (the norm of the test charge is              1.0000)
       1 -82.2886       2 -82.2105       3 -82.4099       4 -82.2080       5 -82.1226
       6 -82.3577       7 -82.3585       8 -82.3564
 
 
 
 E-fermi :  -4.3818     XC(G=0):  -0.6372     alpha+bet : -0.2865


 spin component 1

 k-point     1 :       0.0000    0.0000    0.0000
  band No.  band energies     occupation 
      1      -9.0860      1.00000
      2      -8.9119      1.00000
      3      -8.7871      1.00000
      4      -8.6043      1.00000
      5      -8.5565      1.00000
      6      -8.4397      1.00000
      7      -8.3708      1.00000
      8      -8.3597      1.00000
      9      -8.2718      1.00000
     10      -8.2140      1.00000
     11      -8.1412      1.00000
     12      -8.0478      1.00000
     13      -7.9494      1.00000
     14      -7.8733      1.00000
     15      -7.8643      1.00000
     16      -7.7915      1.00000
     17      -7.7351      1.00000
     18      -7.5661      1.00000
     19      -7.5358      1.00000
     20      -7.4208      1.00000
     21      -7.3308      1.00000
     22      -7.3052      1.00000
     23      -7.2579      1.00000
     24      -7.2012      1.00000
     25      -7.1850      1.00000
     26      -7.1409      1.00000
     27      -7.1137      1.00000
     28      -7.0525      1.00000
     29      -7.0428      1.00000
     30      -6.9689      1.00000
     31      -6.9162      1.00000
     32      -6.8629      1.00000
     33      -6.7846      1.00000
     34      -6.7814      1.00000
     35      -6.6980      1.00000
     36      -6.6761      1.00000
     37      -6.6296      1.00000
     38      -6.6132      1.00000
     39      -6.5949      1.00000
     40      -6.5471      1.00000
     41      -6.4665      1.00000
     42      -5.3500      1.00000
     43      -4.6250      1.00000
     44      -4.3964      1.00000
     45      -2.8752      0.00000
     46      -2.6313      0.00000
     47      -2.5217      0.00000
     48      -2.2021      0.00000
     49      -1.5708      0.00000
     50      -1.5250      0.00000
     51      -0.9155      0.00000
     52      -0.4530      0.00000
     53      -0.4067      0.00000
     54      -0.1701      0.00000
     55       0.0762      0.00000
     56       0.1697      0.00000

 spin component 2

 k-point     1 :       0.0000    0.0000    0.0000
  band No.  band energies     occupation 
      1      -9.0860      1.00000
      2      -8.9119      1.00000
      3      -8.7871      1.00000
      4      -8.6043      1.00000
      5      -8.5565      1.00000
      6      -8.4397      1.00000
      7      -8.3708      1.00000
      8      -8.3597      1.00000
      9      -8.2718      1.00000
     10      -8.2140      1.00000
     11      -8.1412      1.00000
     12      -8.0478      1.00000
     13      -7.9494      1.00000
     14      -7.8733      1.00000
     15      -7.8643      1.00000
     16      -7.7915      1.00000
     17      -7.7351      1.00000
     18      -7.5661      1.00000
     19      -7.5358      1.00000
     20      -7.4208      1.00000
     21      -7.3308      1.00000
     22      -7.3052      1.00000
     23      -7.2579      1.00000
     24      -7.2012      1.00000
     25      -7.1850      1.00000
     26      -7.1409      1.00000
     27      -7.1137      1.00000
     28      -7.0525      1.00000
     29      -7.0428      1.00000
     30      -6.9689      1.00000
     31      -6.9162      1.00000
     32      -6.8629      1.00000
     33      -6.7846      1.00000
     34      -6.7814      1.00000
     35      -6.6980      1.00000
     36      -6.6761      1.00000
     37      -6.6296      1.00000
     38      -6.6132      1.00000
     39      -6.5949      1.00000
     40      -6.5471      1.00000
     41      -6.4665      1.00000
     42      -5.3500      1.00000
     43      -4.6250      1.00000
     44      -4.3964      1.00000
     45      -2.8752      0.00000
     46      -2.6313      0.00000
     47      -2.5217      0.00000
     48      -2.2021      0.00000
     49      -1.5708      0.00000
     50      -1.5250      0.00000
     51      -0.9155      0.00000
     52      -0.4530      0.00000
     53      -0.4067      0.00000
     54      -0.1701      0.00000
     55       0.0762      0.00000
     56       0.1697      0.00000


--------------------------------------------------------------------------------------------------------


 soft charge-density along one line, spin component           1
         0         1         2         3         4         5         6         7         8         9
 total charge-density along one line
 
 soft charge-density along one line, spin component           2
         0         1         2         3         4         5         6         7         8         9
 total charge-density along one line
 
 pseudopotential strength for first ion, spin component:           1
-10.364  -0.012   0.002   0.009   0.001 -10.337  -0.012   0.002
 -0.012 -10.368   0.007   0.002  -0.005  -0.012 -10.341   0.006
  0.002   0.007 -10.376  -0.005   0.002   0.002   0.006 -10.348
  0.009   0.002  -0.005 -10.383  -0.009   0.008   0.002  -0.005
  0.001  -0.005   0.002  -0.009 -10.360   0.001  -0.004   0.002
-10.337  -0.012   0.002   0.008   0.001 -10.286  -0.011   0.002
 -0.012 -10.341   0.006   0.002  -0.004  -0.011 -10.289   0.006
  0.002   0.006 -10.348  -0.005   0.002   0.002   0.006 -10.296
  0.008   0.002  -0.005 -10.355  -0.008   0.008   0.002  -0.005
  0.001  -0.004   0.002  -0.008 -10.333   0.001  -0.004   0.002
  0.001  -0.004   0.003   0.004   0.002   0.001  -0.004   0.003
  0.002  -0.006   0.005   0.007   0.004   0.002  -0.006   0.005
 -0.016  -0.033  -0.003  -0.000  -0.004  -0.016  -0.032  -0.003
 -0.000   0.003  -0.038  -0.016   0.000  -0.000   0.003  -0.036
  0.004  -0.000   0.010  -0.032  -0.017   0.004  -0.000   0.010
 -0.020  -0.041  -0.003  -0.000  -0.005  -0.020  -0.039  -0.003
 -0.000   0.004  -0.046  -0.020   0.001  -0.000   0.004  -0.044
  0.005  -0.000   0.012  -0.040  -0.021   0.005  -0.000   0.012
 pseudopotential strength for first ion, spin component:           2
-10.364  -0.012   0.002   0.009   0.001 -10.337  -0.012   0.002
 -0.012 -10.368   0.007   0.002  -0.005  -0.012 -10.341   0.006
  0.002   0.007 -10.376  -0.005   0.002   0.002   0.006 -10.348
  0.009   0.002  -0.005 -10.383  -0.009   0.008   0.002  -0.005
  0.001  -0.005   0.002  -0.009 -10.360   0.001  -0.004   0.002
-10.337  -0.012   0.002   0.008   0.001 -10.286  -0.011   0.002
 -0.012 -10.341   0.006   0.002  -0.004  -0.011 -10.289   0.006
  0.002   0.006 -10.348  -0.005   0.002   0.002   0.006 -10.296
  0.008   0.002  -0.005 -10.355  -0.008   0.008   0.002  -0.005
  0.001  -0.004   0.002  -0.008 -10.333   0.001  -0.004   0.002
  0.001  -0.004   0.003   0.004   0.002   0.001  -0.004   0.003
  0.002  -0.006   0.005   0.007   0.004   0.002  -0.006   0.005
 -0.016  -0.033  -0.003  -0.000  -0.004  -0.016  -0.032  -0.003
 -0.000   0.003  -0.038  -0.016   0.000  -0.000   0.003  -0.036
  0.004  -0.000   0.010  -0.032  -0.017   0.004  -0.000   0.010
 -0.020  -0.041  -0.003  -0.000  -0.005  -0.020  -0.039  -0.003
 -0.000   0.004  -0.046  -0.020   0.001  -0.000   0.004  -0.044
  0.005  -0.000   0.012  -0.040  -0.021   0.005  -0.000   0.012
 total augmentation occupancy for first ion, spin component:           1
  2.323   0.079  -0.010   0.109   0.027  -0.342  -0.134   0.051  -0.063  -0.012  -0.181   0.029  -0.046  -0.015  -0.036  -0.007
  0.079   2.513  -0.070   0.109   0.001  -0.134  -0.510   0.111  -0.090   0.007   0.249  -0.023  -0.082   0.024  -0.033  -0.015
 -0.010  -0.070   2.642  -0.073  -0.021   0.051   0.111  -0.631   0.064   0.008  -0.329   0.093   0.030  -0.118   0.043  -0.003
  0.109   0.109  -0.073   2.553   0.086  -0.063  -0.089   0.064  -0.659  -0.094  -0.337   0.070  -0.042  -0.022  -0.120   0.001
  0.027   0.001  -0.021   0.086   2.375  -0.012   0.007   0.008  -0.094  -0.304  -0.200   0.031   0.002  -0.017  -0.025  -0.002
 -0.342  -0.134   0.051  -0.063  -0.012   0.340   0.181  -0.084   0.024   0.001   0.167  -0.032   0.068   0.012   0.031  -0.004
 -0.134  -0.510   0.111  -0.089   0.007   0.181   0.490  -0.146   0.073  -0.014  -0.201   0.010   0.111  -0.035   0.027  -0.007
  0.051   0.111  -0.631   0.064   0.008  -0.084  -0.146   0.602  -0.056   0.002   0.278  -0.073  -0.038   0.145  -0.047   0.003
 -0.063  -0.090   0.064  -0.659  -0.094   0.024   0.073  -0.056   0.733   0.102   0.280  -0.049   0.033   0.037   0.161  -0.001
 -0.012   0.007   0.008  -0.094  -0.304   0.001  -0.014   0.002   0.102   0.219   0.170  -0.023  -0.007   0.023   0.031   0.001
 -0.181   0.249  -0.329  -0.337  -0.200   0.167  -0.201   0.278   0.280   0.170   1.727  -0.189  -0.005   0.230   0.099  -0.000
  0.029  -0.023   0.093   0.070   0.031  -0.032   0.010  -0.073  -0.049  -0.023  -0.189   0.034  -0.005  -0.040  -0.013   0.000
 -0.046  -0.082   0.030  -0.042   0.002   0.068   0.111  -0.038   0.033  -0.007  -0.005  -0.005   0.033  -0.003   0.014  -0.002
 -0.015   0.024  -0.118  -0.022  -0.017   0.012  -0.035   0.145   0.037   0.023   0.230  -0.040  -0.003   0.059   0.005   0.000
 -0.036  -0.033   0.043  -0.120  -0.025   0.031   0.027  -0.047   0.161   0.031   0.099  -0.013   0.014   0.005   0.046  -0.001
 -0.007  -0.015  -0.003   0.001  -0.002  -0.004  -0.007   0.003  -0.001   0.001  -0.000   0.000  -0.002   0.000  -0.001   0.000
  0.001  -0.001  -0.013  -0.005   0.002  -0.001   0.003  -0.010  -0.004  -0.002  -0.020   0.003   0.000  -0.005  -0.001  -0.000
  0.003   0.001   0.005  -0.012  -0.008  -0.002  -0.001   0.001  -0.011  -0.002  -0.008   0.001  -0.001  -0.001  -0.003   0.000
 total augmentation occupancy for first ion, spin component:           2
  0.000  -0.000  -0.000   0.000  -0.000  -0.000   0.000   0.000  -0.000   0.000   0.000  -0.000   0.000  -0.000  -0.000  -0.000
 -0.000   0.000  -0.000  -0.000  -0.000   0.000  -0.000  -0.000   0.000   0.000   0.000  -0.000   0.000  -0.000   0.000  -0.000
 -0.000  -0.000  -0.000   0.000  -0.000   0.000  -0.000   0.000  -0.000   0.000   0.000  -0.000  -0.000  -0.000   0.000   0.000
  0.000  -0.000   0.000   0.000   0.000  -0.000   0.000  -0.000  -0.000  -0.000  -0.000   0.000   0.000  -0.000   0.000  -0.000
 -0.000  -0.000  -0.000   0.000  -0.000   0.000   0.000   0.000  -0.000   0.000   0.000  -0.000  -0.000  -0.000  -0.000   0.000
 -0.000   0.000   0.000  -0.000   0.000   0.000  -0.000   0.000   0.000  -0.000  -0.000   0.000  -0.000   0.000   0.000   0.000
  0.000  -0.000  -0.000   0.000   0.000  -0.000   0.000   0.000  -0.000  -0.000  -0.000   0.000  -0.000   0.000  -0.000   0.000
  0.000  -0.000   0.000  -0.000   0.000   0.000   0.000  -0.000   0.000   0.000  -0.000   0.000   0.000   0.000  -0.000  -0.000
 -0.000   0.000  -0.000  -0.000  -0.000   0.000  -0.000   0.000  -0.000   0.000   0.000  -0.000  -0.000   0.000  -0.000   0.000
  0.000   0.000   0.000  -0.000   0.000  -0.000  -0.000   0.000   0.000  -0.000  -0.000   0.000  -0.000   0.000   0.000  -0.000
  0.000   0.000   0.000  -0.000   0.000  -0.000  -0.000  -0.000   0.000  -0.000  -0.000   0.000  -0.000   0.000   0.000  -0.000
 -0.000  -0.000  -0.000   0.000  -0.000   0.000   0.000   0.000  -0.000   0.000   0.000  -0.000   0.000  -0.000  -0.000   0.000
  0.000   0.000  -0.000   0.000  -0.000  -0.000  -0.000   0.000  -0.000  -0.000  -0.000   0.000   0.000  -0.000  -0.000  -0.000
 -0.000  -0.000  -0.000  -0.000  -0.000   0.000   0.000   0.000   0.000   0.000   0.000  -0.000  -0.000  -0.000   0.000   0.000
 -0.000   0.000   0.000   0.000  -0.000   0.000  -0.000  -0.000  -0.000   0.000   0.000  -0.000  -0.000   0.000   0.000   0.000
 -0.000  -0.000   0.000  -0.000   0.000   0.000   0.000  -0.000   0.000  -0.000  -0.000   0.000  -0.000   0.000   0.000   0.000
  0.000   0.000   0.000  -0.000  -0.000  -0.000  -0.000  -0.000  -0.000   0.000  -0.000   0.000  -0.000   0.000  -0.000  -0.000
  0.000  -0.000  -0.000  -0.000   0.000   0.000   0.000   0.000   0.000  -0.000   0.000  -0.000   0.000  -0.000  -0.000  -0.000


------------------------ aborting loop because EDIFF is reached ----------------------------------------


    CHARGE:  cpu time    0.03: real time    0.03
    FORLOC:  cpu time    0.00: real time    0.00
    FORNL :  cpu time    0.13: real time    0.13
    STRESS:  cpu time    0.16: real time    0.16
    FORCOR:  cpu time    0.17: real time    0.17
    FORHAR:  cpu time    0.02: real time    0.02
    MIXING:  cpu time    0.00: real time    0.00
    OFIELD:  cpu time    0.00: real time    0.00

  FORCE on cell =-STRESS in cart. coord.  units (eV):
  Direction    XX          YY          ZZ          XY          YZ          ZX
  --------------------------------------------------------------------------------------
  Alpha Z     8.49342     8.49342     8.49342
  Ewald    2307.78844  1573.18408  2838.32933    -1.70280  -620.84852   784.45852
  Hartree  4937.75903  4330.81077  5390.09005    -2.02396  -499.55739   638.04310
  E(xc)    -463.51592  -463.90417  -463.31610    -0.01084    -0.39347     0.45451
  Local   -8532.07298 -7195.27362 -9511.70419     2.95144  1115.43505 -1416.12065
  n-local   -92.47437   -91.71858   -93.21272     0.12167     0.71093    -1.04733
  augment   733.96112   735.18088   733.23058     0.21684     1.32124    -1.62155
  Kinetic  1097.69263  1100.93910  1095.62072     0.34071     3.32158    -4.11932
  Fock        0.00000     0.00000     0.00000     0.00000     0.00000     0.00000
  -------------------------------------------------------------------------------------
  Total      -2.36862    -2.28812    -2.46891    -0.10694    -0.01058     0.04727
  in kB      -0.59210    -0.57198    -0.61717    -0.02673    -0.00264     0.01182
  external pressure =       -0.59 kB  Pullay stress =        0.00 kB


 VOLUME and BASIS-vectors are now :
 -----------------------------------------------------------------------------
  energy-cutoff  :      249.84
  volume of cell :     6409.31
      direct lattice vectors                 reciprocal lattice vectors
    18.575354551  0.000000000  0.000000000     0.053834773  0.000000000  0.000000000
     0.000000000 18.575354551  0.000000000     0.000000000  0.053834773  0.000000000
     0.000000000  0.000000000 18.575354551     0.000000000  0.000000000  0.053834773

  length of vectors
    18.575354551 18.575354551 18.575354551     0.053834773  0.053834773  0.053834773


 FORCES acting on ions
    electron-ion (+dipol)            ewald-force                    non-local-force                 convergence-correction
 -----------------------------------------------------------------------------------------------
   0.252E+03 0.808E+02 0.750E+03   -.249E+03 -.814E+02 -.744E+03   -.292E+01 0.611E+00 -.594E+01   0.104E-01 -.401E-02 -.562E-02
   -.334E+03 -.555E+03 0.504E+03   0.332E+03 0.552E+03 -.501E+03   0.182E+01 0.324E+01 -.383E+01   0.271E-02 0.766E-02 0.990E-03
   -.273E+03 0.548E+03 0.345E+03   0.272E+03 -.547E+03 -.345E+03   0.555E+00 -.932E+00 -.309E+00   0.311E-02 0.980E-02 0.590E-02
   0.772E+03 0.269E+03 0.522E+02   -.767E+03 -.267E+03 -.511E+02   -.491E+01 -.181E+01 -.113E+01   0.373E-02 0.664E-03 -.884E-02
   0.418E+03 -.687E+03 -.224E+03   -.415E+03 0.683E+03 0.225E+03   -.293E+01 0.368E+01 -.502E+00   0.203E-02 -.288E-02 -.264E-03
   -.611E+03 -.422E+03 -.361E+03   0.607E+03 0.421E+03 0.358E+03   0.374E+01 0.153E+01 0.314E+01   -.180E-02 0.941E-03 0.677E-02
   0.294E+03 0.255E+03 -.726E+03   -.294E+03 -.253E+03 0.722E+03   -.420E+00 -.160E+01 0.481E+01   -.995E-02 0.812E-04 -.477E-03
   -.517E+03 0.511E+03 -.340E+03   0.512E+03 -.507E+03 0.337E+03   0.448E+01 -.432E+01 0.320E+01   -.724E-02 -.239E-02 0.316E-02
 -----------------------------------------------------------------------------------------------
   0.585E+00 -.460E+00 0.589E+00   -.114E-12 0.000E+00 -.171E-12   -.588E+00 0.390E+00 -.570E+00   0.298E-02 0.987E-02 0.162E-02
 
 
 POSITION                                       TOTAL-FORCE (eV/Angst)
 -----------------------------------------------------------------------------------
      6.95942      7.74866      5.23831         0.020725     -0.004623     -0.007929
      8.74521      9.55907      6.41908         0.000589      0.002337      0.010682
      8.45497      6.90286      7.28881         0.003626      0.009109     -0.008957
      5.67428      7.27724      7.68179        -0.007415     -0.004010     -0.022850
      6.91171      9.63054      8.51271        -0.001529      0.012350     -0.005418
      9.53107      8.90351      8.97596         0.000761      0.002350      0.006058
      7.32285      7.25905      9.86135        -0.009801     -0.010265      0.015141
      9.86372      6.18232      9.48523        -0.006958     -0.007248      0.013272
 -----------------------------------------------------------------------------------
    total drift:                               -0.000229     -0.060140      0.020264


--------------------------------------------------------------------------------------------------------



  FREE ENERGIE OF THE ION-ELECTRON SYSTEM (eV)
  ---------------------------------------------------
  free  energy   TOTEN  =       -13.95066057 eV

  energy  without entropy=      -13.95066057  energy(sigma->0) =      -13.95066057
 
 d Force = 0.3243341E-04[ 0.361E-04, 0.287E-04]  d Energy = 0.7264152E-04-0.402E-04
 d Force =-0.1078796E+01[-0.108E+01,-0.108E+01]  d Ewald  =-0.1078796E+01 0.314E-07


--------------------------------------------------------------------------------------------------------


    POTLOK:  cpu time    0.18: real time    0.18


--------------------------------------------------------------------------------------------------------




--------------------------------------------------------------------------------------------------------


  
 reached required accuracy - stopping structural energy minimisation
     LOOP+:  cpu time    1.78: real time    1.85
    4ORBIT:  cpu time    0.00: real time    0.00

 total amount of memory used by VASP on root node    48388. kBytes
========================================================================

   base      :      30000. kBytes
   nonl-proj :        979. kBytes
   fftplans  :       4479. kBytes
   grid      :      11298. kBytes
   one-center:         15. kBytes
   wavefun   :       1617. kBytes
 
  
  
 General timing and accounting informations for this job:
 ========================================================
  
                  Total CPU time used (sec):      193.152
                            User time (sec):      188.500
                          System time (sec):        4.652
                         Elapsed time (sec):      219.872
  
                   Maximum memory used (kb):       53672.
                   Average memory used (kb):           0.
  
                          Minor page faults:       804143
                          Major page faults:            0
                 Voluntary context switches:         8957
