<?xml version="1.0" encoding="ISO-8859-1"?>
<modeling>
 <generator>
  <i name="program" type="string">vasp </i>
  <i name="version" type="string">5.3.5  </i>
  <i name="subversion" type="string">31Mar14 (build Feb 01 2018 12:10:03) gamma-only                       parallel </i>
  <i name="platform" type="string">LinuxIFC </i>
  <i name="date" type="string">2019 03 21 </i>
  <i name="time" type="string">22:16:47 </i>
 </generator>
 <incar>
  <i type="string" name="PREC">normal</i>
  <i type="int" name="ISPIN">     2</i>
  <i type="int" name="IBRION">     2</i>
  <i type="int" name="NSW">  1000</i>
  <i type="int" name="ISIF">     2</i>
  <i name="POTIM">      0.10000000</i>
  <i type="logical" name="LPLANE"> T  </i>
  <i type="int" name="ISMEAR">     0</i>
  <i name="SIGMA">      0.00010000</i>
  <i type="logical" name="LWAVE"> F  </i>
  <i type="logical" name="LCHARG"> F  </i>
  <i type="logical" name="LVTOT"> F  </i>
  <i type="string" name="GGA"> PE</i>
 </incar>
 <kpoints>
  <varray name="kpointlist" >
   <v>       0.00000000       0.00000000       0.00000000 </v>
  </varray>
  <varray name="weights" >
   <v>       1.00000000 </v>
  </varray>
 </kpoints>
 <parameters>
  <separator name="general" >
   <i type="string" name="SYSTEM">unknown system</i>
   <i type="logical" name="LCOMPAT"> F  </i>
  </separator>
  <separator name="electronic" >
   <i type="string" name="PREC">normal</i>
   <i name="ENMAX">    249.84400000</i>
   <i name="ENAUG">    412.49600000</i>
   <i name="EDIFF">      0.00010000</i>
   <i type="int" name="IALGO">    38</i>
   <i type="int" name="IWAVPR">    11</i>
   <i type="int" name="NBANDS">   164</i>
   <i name="NELECT">    253.00000000</i>
   <i type="int" name="TURBO">     0</i>
   <i type="int" name="IRESTART">     0</i>
   <i type="int" name="NREBOOT">     0</i>
   <i type="int" name="NMIN">     0</i>
   <i name="EREF">      0.00000000</i>
   <separator name="electronic smearing" >
    <i type="int" name="ISMEAR">     0</i>
    <i name="SIGMA">      0.00010000</i>
    <i name="KSPACING">      0.50000000</i>
    <i type="logical" name="KGAMMA"> T  </i>
   </separator>
   <separator name="electronic projectors" >
    <i type="logical" name="LREAL"> F  </i>
    <v name="ROPT">      0.00000000</v>
    <i type="int" name="LMAXPAW">  -100</i>
    <i type="int" name="LMAXMIX">     2</i>
    <i type="logical" name="NLSPLINE"> F  </i>
   </separator>
   <separator name="electronic startup" >
    <i type="int" name="ISTART">     0</i>
    <i type="int" name="ICHARG">     2</i>
    <i type="int" name="INIWAV">     1</i>
   </separator>
   <separator name="electronic spin" >
    <i type="int" name="ISPIN">     2</i>
    <i type="logical" name="LNONCOLLINEAR"> F  </i>
    <v name="MAGMOM">      1.00000000      1.00000000      1.00000000      1.00000000      1.00000000      1.00000000      1.00000000      1.00000000      1.00000000      1.00000000      1.00000000      1.00000000      1.00000000      1.00000000      1.00000000      1.00000000      1.00000000      1.00000000      1.00000000      1.00000000
      1.00000000      1.00000000      1.00000000</v>
    <i name="NUPDOWN">     -1.00000000</i>
    <i type="logical" name="LSORBIT"> F  </i>
    <v name="SAXIS">      0.00000000      0.00000000      1.00000000</v>
    <i type="logical" name="LSPIRAL"> F  </i>
    <v name="QSPIRAL">      0.00000000      0.00000000      0.00000000</v>
    <i type="logical" name="LZEROZ"> F  </i>
   </separator>
   <separator name="electronic exchange-correlation" >
    <i type="logical" name="LASPH"> F  </i>
    <i type="logical" name="LMETAGGA"> F  </i>
   </separator>
   <separator name="electronic convergence" >
    <i type="int" name="NELM">    60</i>
    <i type="int" name="NELMDL">    -5</i>
    <i type="int" name="NELMIN">     2</i>
    <i name="ENINI">    249.84400000</i>
    <separator name="electronic convergence detail" >
     <i type="logical" name="LDIAG"> T  </i>
     <i type="logical" name="LSUBROT"> F  </i>
     <i name="WEIMIN">      0.00100000</i>
     <i name="EBREAK">      0.00000015</i>
     <i name="DEPER">      0.30000000</i>
     <i type="int" name="NRMM">     4</i>
     <i name="TIME">      0.40000000</i>
    </separator>
   </separator>
   <separator name="electronic mixer" >
    <i name="AMIX">      0.40000000</i>
    <i name="BMIX">      1.00000000</i>
    <i name="AMIN">      0.10000000</i>
    <i name="AMIX_MAG">      1.60000000</i>
    <i name="BMIX_MAG">      1.00000000</i>
    <separator name="electronic mixer details" >
     <i type="int" name="IMIX">     4</i>
     <i type="int" name="MAXMIX">   -45</i>
     <i name="WC">    100.00000000</i>
     <i type="int" name="INIMIX">     1</i>
     <i type="int" name="MIXPRE">     1</i>
     <i type="int" name="MREMOVE">     5</i>
    </separator>
   </separator>
   <separator name="electronic dipolcorrection" >
    <i type="logical" name="LDIPOL"> F  </i>
    <i type="logical" name="LMONO"> F  </i>
    <i type="int" name="IDIPOL">     0</i>
    <i name="EPSILON">      1.00000000</i>
    <v name="DIPOL">   -100.00000000   -100.00000000   -100.00000000</v>
    <i name="EFIELD">      0.00000000</i>
   </separator>
  </separator>
  <separator name="grids" >
   <i type="int" name="NGX">    80</i>
   <i type="int" name="NGY">    80</i>
   <i type="int" name="NGZ">    80</i>
   <i type="int" name="NGXF">   160</i>
   <i type="int" name="NGYF">   160</i>
   <i type="int" name="NGZF">   160</i>
   <i type="logical" name="ADDGRID"> F  </i>
  </separator>
  <separator name="ionic" >
   <i type="int" name="NSW">  1000</i>
   <i type="int" name="IBRION">     2</i>
   <i type="int" name="ISIF">     2</i>
   <i name="PSTRESS">      0.00000000</i>
   <i name="EDIFFG">      0.00100000</i>
   <i type="int" name="NFREE">     1</i>
   <i name="POTIM">      0.10000000</i>
   <i name="SMASS">     -3.00000000</i>
   <i name="SCALEE">      1.00000000</i>
  </separator>
  <separator name="ionic md" >
   <i name="TEBEG">      0.00010000</i>
   <i name="TEEND">      0.00010000</i>
   <i type="int" name="NBLOCK">     1</i>
   <i type="int" name="KBLOCK">  1000</i>
   <i type="int" name="NPACO">   256</i>
   <i name="APACO">     16.00000000</i>
  </separator>
  <separator name="symmetry" >
   <i type="int" name="ISYM">     2</i>
   <i name="SYMPREC">      0.00001000</i>
  </separator>
  <separator name="dos" >
   <i type="logical" name="LORBIT"> F  </i>
   <v name="RWIGS">     -1.00000000</v>
   <i type="int" name="NEDOS">   301</i>
   <i name="EMIN">     10.00000000</i>
   <i name="EMAX">    -10.00000000</i>
   <i name="EFERMI">      0.00000000</i>
  </separator>
  <separator name="writing" >
   <i type="int" name="NWRITE">     2</i>
   <i type="logical" name="LWAVE"> F  </i>
   <i type="logical" name="LCHARG"> F  </i>
   <i type="logical" name="LPARD"> F  </i>
   <i type="logical" name="LVTOT"> F  </i>
   <i type="logical" name="LVHAR"> F  </i>
   <i type="logical" name="LELF"> F  </i>
   <i type="logical" name="LOPTICS"> F  </i>
   <v name="STM">      0.00000000      0.00000000      0.00000000      0.00000000      0.00000000      0.00000000      0.00000000</v>
  </separator>
  <separator name="performance" >
   <i type="int" name="NPAR">     4</i>
   <i type="int" name="NSIM">     4</i>
   <i type="int" name="NBLK">    -1</i>
   <i type="logical" name="LPLANE"> T  </i>
   <i type="logical" name="LSCALAPACK"> T  </i>
   <i type="logical" name="LSCAAWARE"> F  </i>
   <i type="logical" name="LSCALU"> F  </i>
   <i type="logical" name="LASYNC"> F  </i>
   <i type="logical" name="LORBITALREAL"> F  </i>
  </separator>
  <separator name="miscellaneous" >
   <i type="int" name="IDIOT">     3</i>
   <i type="logical" name="LMUSIC"> F  </i>
   <v name="POMASS">    107.86800000</v>
   <v name="DARWINR">      0.00000000</v>
   <v name="DARWINV">      1.00000000</v>
   <i type="logical" name="LCORR"> T  </i>
  </separator>
  <i type="logical" name="GGA_COMPAT"> T  </i>
  <i type="logical" name="LBERRY"> F  </i>
  <i type="int" name="ICORELEVEL">     0</i>
  <i type="logical" name="LDAU"> F  </i>
  <i type="int" name="I_CONSTRAINED_M">     0</i>
  <separator name="electronic exchange-correlation" >
   <i type="string" name="GGA">PE</i>
   <i type="int" name="VOSKOWN">     0</i>
   <i type="logical" name="LHFCALC"> F  </i>
   <i type="string" name="PRECFOCK"></i>
   <i type="logical" name="LSYMGRAD"> F  </i>
   <i type="logical" name="LHFONE"> F  </i>
   <i type="logical" name="LRHFCALC"> F  </i>
   <i type="logical" name="LTHOMAS"> F  </i>
   <i type="logical" name="LMODELHF"> F  </i>
   <i name="ENCUT4O">     -1.00000000</i>
   <i type="int" name="EXXOEP">     0</i>
   <i type="int" name="FOURORBIT">     0</i>
   <i name="AEXX">      0.00000000</i>
   <i name="HFALPHA">      0.00000000</i>
   <i name="MCALPHA">      0.00000000</i>
   <i name="ALDAX">      1.00000000</i>
   <i name="AGGAX">      1.00000000</i>
   <i name="ALDAC">      1.00000000</i>
   <i name="AGGAC">      1.00000000</i>
   <i type="int" name="NKREDX">     1</i>
   <i type="int" name="NKREDY">     1</i>
   <i type="int" name="NKREDZ">     1</i>
   <i type="logical" name="SHIFTRED"> F  </i>
   <i type="logical" name="ODDONLY"> F  </i>
   <i type="logical" name="EVENONLY"> F  </i>
   <i type="int" name="LMAXFOCK">     0</i>
   <i type="int" name="NMAXFOCKAE">     0</i>
   <i type="logical" name="LFOCKAEDFT"> F  </i>
   <i name="HFSCREEN">      0.00000000</i>
   <i name="HFSCREENC">      0.00000000</i>
   <i type="int" name="NBANDSGWLOW">     0</i>
  </separator>
  <separator name="vdW DFT" >
   <i type="logical" name="LUSE_VDW"> F  </i>
   <i name="Zab_VDW">     -0.84910000</i>
   <i name="PARAM1">      0.12340000</i>
   <i name="PARAM2">      1.00000000</i>
   <i name="PARAM3">      0.00000000</i>
  </separator>
  <separator name="model GW" >
   <i type="int" name="MODEL_GW">     0</i>
   <i name="MODEL_EPS0">    230.58242678</i>
   <i name="MODEL_ALPHA">      1.00000000</i>
  </separator>
  <separator name="linear response parameters" >
   <i type="logical" name="LEPSILON"> F  </i>
   <i type="logical" name="LRPA"> F  </i>
   <i type="logical" name="LNABLA"> F  </i>
   <i type="logical" name="LVEL"> F  </i>
   <i type="int" name="KINTER">     0</i>
   <i name="CSHIFT">      0.10000000</i>
   <i name="OMEGAMAX">     -1.00000000</i>
   <i name="DEG_THRESHOLD">      0.00200000</i>
  </separator>
  <separator name="orbital magnetization" >
   <i type="logical" name="NUCIND"> F  </i>
   <v name="MAGPOS">      0.00000000      0.00000000      0.00000000</v>
   <i type="logical" name="LNICSALL"> T  </i>
   <i type="logical" name="ORBITALMAG"> F  </i>
   <i type="logical" name="LMAGBLOCH"> F  </i>
   <i type="logical" name="LCHIMAG"> F  </i>
   <i type="logical" name="LGAUGE"> T  </i>
   <i type="int" name="MAGATOM">     0</i>
   <v name="MAGDIPOL">      0.00000000      0.00000000      0.00000000</v>
   <v name="AVECCONST">      0.00000000      0.00000000      0.00000000</v>
  </separator>
  <separator name="response functions" >
   <i type="logical" name="LADDER"> F  </i>
   <i type="logical" name="LFXC"> F  </i>
   <i type="logical" name="LHARTREE"> T  </i>
   <i type="int" name="IBSE">     0</i>
   <i type="logical" name="LTCTE"> F  </i>
   <i type="logical" name="LTETE"> F  </i>
   <i type="logical" name="LTRIPLET"> F  </i>
   <i type="logical" name="LFXCEPS"> F  </i>
   <i type="logical" name="LFXHEG"> F  </i>
   <i type="logical" name="L2ORDER"> F  </i>
   <i type="logical" name="LUSEW"> F  </i>
   <i name="ENCUTGW">     -2.00000000</i>
   <i name="ENCUTGWSOFT">     -2.00000000</i>
   <i name="ENCUTLF">     -1.00000000</i>
   <i type="int" name="LMAXMP2">    -1</i>
   <i name="SCISSOR">      0.00000000</i>
   <i type="int" name="NOMEGA">     0</i>
   <i type="int" name="NOMEGAR">     0</i>
   <i type="int" name="NBANDSGW">    -1</i>
   <i type="int" name="NBANDSO">    -1</i>
   <i type="int" name="NBANDSV">    -1</i>
   <i type="int" name="NELM">     1</i>
   <i type="int" name="DIM">     3</i>
   <i type="int" name="ANTIRES">     0</i>
   <i name="OMEGAMAX">    -30.00000000</i>
   <i name="OMEGAMIN">    -30.00000000</i>
   <i name="OMEGATL">   -200.00000000</i>
   <i type="int" name="OMEGAGRID">     0</i>
   <i name="CSHIFT">     -0.10000000</i>
   <i type="logical" name="SELFENERGY"> F  </i>
   <i type="logical" name="LSPECTRAL"> F  </i>
   <i type="logical" name="ODDONLYGW"> F  </i>
   <i type="logical" name="EVENONLYGW"> F  </i>
   <i type="int" name="NKREDLFX">     1</i>
   <i type="int" name="NKREDLFY">     1</i>
   <i type="int" name="NKREDLFZ">     1</i>
   <i type="int" name="MAXMEM">  1800</i>
   <i type="int" name="TELESCOPE">     0</i>
   <i type="int" name="TAUPAR">     1</i>
  </separator>
  <separator name="External order field" >
   <i name="OFIELD_KAPPA">      0.00000000</i>
   <v name="OFIELD_K">      0.00000000      0.00000000      0.00000000</v>
   <i name="OFIELD_Q6_NEAR">      0.00000000</i>
   <i name="OFIELD_Q6_FAR">      0.00000000</i>
   <i name="OFIELD_A">      0.00000000</i>
  </separator>
 </parameters>
 <atominfo>
  <atoms>      23 </atoms>
  <types>       1 </types>
  <array name="atoms" >
   <dimension dim="1">ion</dimension>
   <field type="string">element</field>
   <field type="int">atomtype</field>
   <set>
    <rc><c>Ag</c><c>   1</c></rc>
    <rc><c>Ag</c><c>   1</c></rc>
    <rc><c>Ag</c><c>   1</c></rc>
    <rc><c>Ag</c><c>   1</c></rc>
    <rc><c>Ag</c><c>   1</c></rc>
    <rc><c>Ag</c><c>   1</c></rc>
    <rc><c>Ag</c><c>   1</c></rc>
    <rc><c>Ag</c><c>   1</c></rc>
    <rc><c>Ag</c><c>   1</c></rc>
    <rc><c>Ag</c><c>   1</c></rc>
    <rc><c>Ag</c><c>   1</c></rc>
    <rc><c>Ag</c><c>   1</c></rc>
    <rc><c>Ag</c><c>   1</c></rc>
    <rc><c>Ag</c><c>   1</c></rc>
    <rc><c>Ag</c><c>   1</c></rc>
    <rc><c>Ag</c><c>   1</c></rc>
    <rc><c>Ag</c><c>   1</c></rc>
    <rc><c>Ag</c><c>   1</c></rc>
    <rc><c>Ag</c><c>   1</c></rc>
    <rc><c>Ag</c><c>   1</c></rc>
    <rc><c>Ag</c><c>   1</c></rc>
    <rc><c>Ag</c><c>   1</c></rc>
    <rc><c>Ag</c><c>   1</c></rc>
   </set>
  </array>
  <array name="atomtypes" >
   <dimension dim="1">type</dimension>
   <field type="int">atomspertype</field>
   <field type="string">element</field>
   <field>mass</field>
   <field>valence</field>
   <field type="string">pseudopotential</field>
   <set>
    <rc><c>  23</c><c>Ag</c><c>    107.86800000</c><c>     11.00000000</c><c>  PAW_PBE Ag 02Apr2005                  </c></rc>
   </set>
  </array>
 </atominfo>
 <structure name="initialpos" >
  <crystal>
   <varray name="basis" >
    <v>      20.67605111       0.00000000       0.00000000 </v>
    <v>       0.00000000      20.67605111       0.00000000 </v>
    <v>       0.00000000       0.00000000      20.67605111 </v>
   </varray>
   <i name="volume">   8838.99302660 </i>
   <varray name="rec_basis" >
    <v>       0.04836513       0.00000000       0.00000000 </v>
    <v>       0.00000000       0.04836513       0.00000000 </v>
    <v>       0.00000000       0.00000000       0.04836513 </v>
   </varray>
  </crystal>
  <varray name="positions" >
   <v>       0.49442529       0.46191462       0.65611521 </v>
   <v>       0.43724562       0.54695767       0.56884910 </v>
   <v>       0.47594213       0.67141195       0.57789207 </v>
   <v>       0.45545829       0.35267571       0.47013914 </v>
   <v>       0.49041348       0.44099168       0.37758090 </v>
   <v>       0.56799954       0.61123095       0.49832991 </v>
   <v>       0.69896041       0.53339787       0.64545409 </v>
   <v>       0.60199852       0.49854472       0.72407527 </v>
   <v>       0.46942129       0.56603322       0.41269842 </v>
   <v>       0.68956137       0.62078273       0.42747783 </v>
   <v>       0.59428877       0.52110976       0.39469982 </v>
   <v>       0.53059059       0.47042120       0.50556464 </v>
   <v>       0.47254811       0.69386745       0.44867309 </v>
   <v>       0.31790103       0.36392984       0.48709931 </v>
   <v>       0.52861604       0.35273840       0.57290596 </v>
   <v>       0.38093530       0.48129088       0.46024057 </v>
   <v>       0.62038113       0.43328485       0.60586660 </v>
   <v>       0.57048856       0.65118162       0.37389615 </v>
   <v>       0.37469168       0.37541684       0.36899780 </v>
   <v>       0.56484052       0.57192906       0.62056766 </v>
   <v>       0.40203745       0.41600446       0.57635024 </v>
   <v>       0.66421183       0.52221169       0.51611254 </v>
   <v>       0.36684123       0.62055818       0.48130373 </v>
  </varray>
 </structure>
 <calculation>
  <scstep>
   <time name="dav">    2.26    2.26</time>
   <time name="total">    2.50    2.52</time>
   <energy>
    <i name="alphaZ">     50.90577593 </i>
    <i name="ewald">  41092.60935678 </i>
    <i name="hartreedc"> -63957.52087932 </i>
    <i name="XCdc">   -253.15075761 </i>
    <i name="pawpsdc">  23077.56009560 </i>
    <i name="pawaedc"> -22017.08600421 </i>
    <i name="eentropy">      0.00000000 </i>
    <i name="bandstr">    369.42156822 </i>
    <i name="atom">  23855.56849199 </i>
    <i name="e_fr_energy">   2218.30764738 </i>
    <i name="e_wo_entrp">   2218.30764738 </i>
    <i name="e_0_energy">   2218.30764738 </i>
   </energy>
  </scstep>
  <scstep>
   <time name="dav">    3.57    3.57</time>
   <time name="total">    3.57    3.58</time>
   <energy>
    <i name="e_fr_energy">    527.80431950 </i>
    <i name="e_wo_entrp">    527.80431950 </i>
    <i name="e_0_energy">    527.80431950 </i>
   </energy>
  </scstep>
  <scstep>
   <time name="dav">    2.91    2.91</time>
   <time name="total">    2.91    2.92</time>
   <energy>
    <i name="e_fr_energy">    -14.88998328 </i>
    <i name="e_wo_entrp">    -14.88998328 </i>
    <i name="e_0_energy">    -14.88998328 </i>
   </energy>
  </scstep>
  <scstep>
   <time name="dav">    2.46    2.46</time>
   <time name="total">    2.46    2.46</time>
   <energy>
    <i name="e_fr_energy">    -45.31574323 </i>
    <i name="e_wo_entrp">    -45.31574323 </i>
    <i name="e_0_energy">    -45.31574323 </i>
   </energy>
  </scstep>
  <scstep>
   <time name="dav">    2.52    2.52</time>
   <time name="total">    2.62    2.63</time>
   <energy>
    <i name="e_fr_energy">    -45.79264729 </i>
    <i name="e_wo_entrp">    -45.79264729 </i>
    <i name="e_0_energy">    -45.79264729 </i>
   </energy>
  </scstep>
  <scstep>
   <time name="dav">    2.34    2.34</time>
   <time name="total">    2.68    2.68</time>
   <energy>
    <i name="e_fr_energy">    -14.25851854 </i>
    <i name="e_wo_entrp">    -14.25851854 </i>
    <i name="e_0_energy">    -14.25851854 </i>
   </energy>
  </scstep>
  <scstep>
   <time name="dav">    2.41    2.41</time>
   <time name="total">    2.74    2.75</time>
   <energy>
    <i name="e_fr_energy">    -10.22660557 </i>
    <i name="e_wo_entrp">    -10.22660557 </i>
    <i name="e_0_energy">    -10.22660557 </i>
   </energy>
  </scstep>
  <scstep>
   <time name="dav">    2.40    2.41</time>
   <time name="total">    2.74    2.74</time>
   <energy>
    <i name="e_fr_energy">    -13.61448298 </i>
    <i name="e_wo_entrp">    -13.61448298 </i>
    <i name="e_0_energy">    -13.61448298 </i>
   </energy>
  </scstep>
  <scstep>
   <time name="dav">    2.48    2.48</time>
   <time name="total">    2.82    2.82</time>
   <energy>
    <i name="e_fr_energy">    -17.69511037 </i>
    <i name="e_wo_entrp">    -17.69511037 </i>
    <i name="e_0_energy">    -17.69511037 </i>
   </energy>
  </scstep>
  <scstep>
   <time name="dav">    2.34    2.34</time>
   <time name="total">    2.67    2.67</time>
   <energy>
    <i name="e_fr_energy">    -25.13024942 </i>
    <i name="e_wo_entrp">    -25.13024942 </i>
    <i name="e_0_energy">    -25.13024942 </i>
   </energy>
  </scstep>
  <scstep>
   <time name="dav">    2.50    2.51</time>
   <time name="total">    2.84    2.84</time>
   <energy>
    <i name="e_fr_energy">    -26.18574470 </i>
    <i name="e_wo_entrp">    -26.18574470 </i>
    <i name="e_0_energy">    -26.18574470 </i>
   </energy>
  </scstep>
  <scstep>
   <time name="dav">    2.33    2.33</time>
   <time name="total">    2.66    2.67</time>
   <energy>
    <i name="e_fr_energy">    -32.45178804 </i>
    <i name="e_wo_entrp">    -32.45178804 </i>
    <i name="e_0_energy">    -32.45178804 </i>
   </energy>
  </scstep>
  <scstep>
   <time name="dav">    2.38    2.38</time>
   <time name="total">    2.72    2.73</time>
   <energy>
    <i name="e_fr_energy">    -38.60180151 </i>
    <i name="e_wo_entrp">    -38.60180151 </i>
    <i name="e_0_energy">    -38.60180151 </i>
   </energy>
  </scstep>
  <scstep>
   <time name="dav">    2.70    2.70</time>
   <time name="total">    3.03    3.17</time>
   <energy>
    <i name="e_fr_energy">    -38.97487408 </i>
    <i name="e_wo_entrp">    -38.97487408 </i>
    <i name="e_0_energy">    -38.97487408 </i>
   </energy>
  </scstep>
  <scstep>
   <time name="dav">    2.36    2.36</time>
   <time name="total">    2.70    2.72</time>
   <energy>
    <i name="e_fr_energy">    -40.41000767 </i>
    <i name="e_wo_entrp">    -40.41000767 </i>
    <i name="e_0_energy">    -40.41000767 </i>
   </energy>
  </scstep>
  <scstep>
   <time name="dav">    2.34    2.34</time>
   <time name="total">    2.68    2.69</time>
   <energy>
    <i name="e_fr_energy">    -42.61874583 </i>
    <i name="e_wo_entrp">    -42.61874583 </i>
    <i name="e_0_energy">    -42.61874583 </i>
   </energy>
  </scstep>
  <scstep>
   <time name="dav">    2.34    2.34</time>
   <time name="total">    2.68    2.68</time>
   <energy>
    <i name="e_fr_energy">    -43.74214934 </i>
    <i name="e_wo_entrp">    -43.74214934 </i>
    <i name="e_0_energy">    -43.74214934 </i>
   </energy>
  </scstep>
  <scstep>
   <time name="dav">    2.40    2.41</time>
   <time name="total">    2.74    2.77</time>
   <energy>
    <i name="e_fr_energy">    -44.41656936 </i>
    <i name="e_wo_entrp">    -44.41656936 </i>
    <i name="e_0_energy">    -44.41656936 </i>
   </energy>
  </scstep>
  <scstep>
   <time name="dav">    2.39    2.39</time>
   <time name="total">    2.73    2.73</time>
   <energy>
    <i name="e_fr_energy">    -45.00159506 </i>
    <i name="e_wo_entrp">    -45.00159506 </i>
    <i name="e_0_energy">    -45.00159506 </i>
   </energy>
  </scstep>
  <scstep>
   <time name="dav">    2.50    2.50</time>
   <time name="total">    2.84    2.84</time>
   <energy>
    <i name="e_fr_energy">    -45.16751392 </i>
    <i name="e_wo_entrp">    -45.16751392 </i>
    <i name="e_0_energy">    -45.16751392 </i>
   </energy>
  </scstep>
  <scstep>
   <time name="dav">    2.04    2.04</time>
   <time name="total">    2.38    2.39</time>
   <energy>
    <i name="e_fr_energy">    -45.22713353 </i>
    <i name="e_wo_entrp">    -45.22713353 </i>
    <i name="e_0_energy">    -45.22713353 </i>
   </energy>
  </scstep>
  <scstep>
   <time name="dav">    2.19    2.19</time>
   <time name="total">    2.53    2.54</time>
   <energy>
    <i name="e_fr_energy">    -45.27597169 </i>
    <i name="e_wo_entrp">    -45.27597169 </i>
    <i name="e_0_energy">    -45.27597169 </i>
   </energy>
  </scstep>
  <scstep>
   <time name="dav">    1.85    1.85</time>
   <time name="total">    2.20    2.20</time>
   <energy>
    <i name="e_fr_energy">    -45.27797110 </i>
    <i name="e_wo_entrp">    -45.27797110 </i>
    <i name="e_0_energy">    -45.27797110 </i>
   </energy>
  </scstep>
  <scstep>
   <time name="dav">    1.83    1.83</time>
   <time name="total">    2.17    2.18</time>
   <energy>
    <i name="e_fr_energy">    -45.28070673 </i>
    <i name="e_wo_entrp">    -45.28070673 </i>
    <i name="e_0_energy">    -45.28070673 </i>
   </energy>
  </scstep>
  <scstep>
   <time name="dav">    1.87    1.87</time>
   <time name="total">    2.22    2.23</time>
   <energy>
    <i name="e_fr_energy">    -45.28352228 </i>
    <i name="e_wo_entrp">    -45.28352228 </i>
    <i name="e_0_energy">    -45.28352228 </i>
   </energy>
  </scstep>
  <scstep>
   <time name="dav">    1.77    1.77</time>
   <time name="total">    2.12    2.12</time>
   <energy>
    <i name="e_fr_energy">    -45.28558406 </i>
    <i name="e_wo_entrp">    -45.28558406 </i>
    <i name="e_0_energy">    -45.28558406 </i>
   </energy>
  </scstep>
  <scstep>
   <time name="dav">    1.78    1.79</time>
   <time name="total">    2.13    2.15</time>
   <energy>
    <i name="e_fr_energy">    -45.28652707 </i>
    <i name="e_wo_entrp">    -45.28652707 </i>
    <i name="e_0_energy">    -45.28652707 </i>
   </energy>
  </scstep>
  <scstep>
   <time name="dav">    1.73    1.73</time>
   <time name="total">    2.08    2.16</time>
   <energy>
    <i name="e_fr_energy">    -45.28666282 </i>
    <i name="e_wo_entrp">    -45.28666282 </i>
    <i name="e_0_energy">    -45.28666282 </i>
   </energy>
  </scstep>
  <scstep>
   <time name="dav">    1.71    1.71</time>
   <time name="total">    1.94    1.96</time>
   <energy>
    <i name="alphaZ">     50.90577593 </i>
    <i name="ewald">  41092.60935678 </i>
    <i name="hartreedc"> -63931.96337917 </i>
    <i name="XCdc">   -261.32528131 </i>
    <i name="pawpsdc">  24935.06746642 </i>
    <i name="pawaedc"> -23916.56923450 </i>
    <i name="eentropy">     -0.00000000 </i>
    <i name="bandstr">  -1869.57987494 </i>
    <i name="atom">  23855.56849199 </i>
    <i name="e_fr_energy">    -45.28667880 </i>
    <i name="e_wo_entrp">    -45.28667880 </i>
    <i name="e_0_energy">    -45.28667880 </i>
   </energy>
  </scstep>
  <structure>
   <crystal>
    <varray name="basis" >
     <v>      20.67605111       0.00000000       0.00000000 </v>
     <v>       0.00000000      20.67605111       0.00000000 </v>
     <v>       0.00000000       0.00000000      20.67605111 </v>
    </varray>
    <i name="volume">   8838.99302660 </i>
    <varray name="rec_basis" >
     <v>       0.04836513       0.00000000       0.00000000 </v>
     <v>       0.00000000       0.04836513       0.00000000 </v>
     <v>       0.00000000       0.00000000       0.04836513 </v>
    </varray>
   </crystal>
   <varray name="positions" >
    <v>       0.49442529       0.46191462       0.65611521 </v>
    <v>       0.43724562       0.54695767       0.56884910 </v>
    <v>       0.47594213       0.67141195       0.57789207 </v>
    <v>       0.45545829       0.35267571       0.47013914 </v>
    <v>       0.49041348       0.44099168       0.37758090 </v>
    <v>       0.56799954       0.61123095       0.49832991 </v>
    <v>       0.69896041       0.53339787       0.64545409 </v>
    <v>       0.60199852       0.49854472       0.72407527 </v>
    <v>       0.46942129       0.56603322       0.41269842 </v>
    <v>       0.68956137       0.62078273       0.42747783 </v>
    <v>       0.59428877       0.52110976       0.39469982 </v>
    <v>       0.53059059       0.47042120       0.50556464 </v>
    <v>       0.47254811       0.69386745       0.44867309 </v>
    <v>       0.31790103       0.36392984       0.48709931 </v>
    <v>       0.52861604       0.35273840       0.57290596 </v>
    <v>       0.38093530       0.48129088       0.46024057 </v>
    <v>       0.62038113       0.43328485       0.60586660 </v>
    <v>       0.57048856       0.65118162       0.37389615 </v>
    <v>       0.37469168       0.37541684       0.36899780 </v>
    <v>       0.56484052       0.57192906       0.62056766 </v>
    <v>       0.40203745       0.41600446       0.57635024 </v>
    <v>       0.66421183       0.52221169       0.51611254 </v>
    <v>       0.36684123       0.62055818       0.48130373 </v>
   </varray>
  </structure>
  <varray name="forces" >
   <v>       0.30466121      -0.14347896       0.06850651 </v>
   <v>      -0.09089603       0.17165379      -0.11301643 </v>
   <v>      -0.14492730       0.06311832       0.19390068 </v>
   <v>      -0.34963898      -0.13324657      -0.22584315 </v>
   <v>       0.03664932      -0.27741348      -0.26971764 </v>
   <v>       0.08066273       0.15495582      -0.10787148 </v>
   <v>       0.22060754       0.43425417       0.05960190 </v>
   <v>      -0.03830902      -0.00373573       0.38598725 </v>
   <v>      -0.08111725       0.19779446      -0.06733903 </v>
   <v>       0.03464458      -0.20216475      -0.08720400 </v>
   <v>       0.63114050      -0.02041063       0.07799315 </v>
   <v>       0.13765582      -0.19329733       0.08882019 </v>
   <v>      -0.12812790       0.33265582      -0.05171375 </v>
   <v>      -0.16297236      -0.05733026       0.04303831 </v>
   <v>      -0.15049573      -0.19696491       0.31818678 </v>
   <v>      -0.25266349      -0.21715439      -0.01397736 </v>
   <v>       0.20724596       0.37193447       0.16546317 </v>
   <v>       0.18220450       0.14300343      -0.36235633 </v>
   <v>      -0.26358060       0.12395544      -0.32035992 </v>
   <v>       0.12798377      -0.16600871       0.14368215 </v>
   <v>      -0.17453126      -0.31069393      -0.08970323 </v>
   <v>       0.03392469       0.01489165      -0.14143097 </v>
   <v>      -0.16012070      -0.08631771       0.30535322 </v>
  </varray>
  <varray name="stress" >
   <v>      -0.16331754       0.37560454       0.19686730 </v>
   <v>       0.37560453      -0.75225414       0.05331056 </v>
   <v>       0.19686729       0.05331055      -0.22222999 </v>
  </varray>
  <energy>
   <i name="e_fr_energy">    -45.28667880 </i>
   <i name="e_wo_entrp">    -45.28667880 </i>
   <i name="e_0_energy">     -0.00000000 </i>
  </energy>
  <time name="totalsc">   79.24   79.84</time>
 </calculation>
 <calculation>
  <scstep>
   <time name="dav">    2.39    2.40</time>
   <time name="total">    2.73    2.75</time>
   <energy>
    <i name="alphaZ">     50.90577593 </i>
    <i name="ewald">  41042.85304668 </i>
    <i name="hartreedc"> -63882.47355858 </i>
    <i name="XCdc">   -261.39362815 </i>
    <i name="pawpsdc">  24935.15142779 </i>
    <i name="pawaedc"> -23916.65394336 </i>
    <i name="eentropy">      0.00000000 </i>
    <i name="bandstr">  -1869.27097306 </i>
    <i name="atom">  23855.56849199 </i>
    <i name="e_fr_energy">    -45.31336076 </i>
    <i name="e_wo_entrp">    -45.31336076 </i>
    <i name="e_0_energy">    -45.31336076 </i>
   </energy>
  </scstep>
  <scstep>
   <time name="dav">    2.44    2.44</time>
   <time name="total">    2.77    2.77</time>
   <energy>
    <i name="e_fr_energy">    -45.31432277 </i>
    <i name="e_wo_entrp">    -45.31432277 </i>
    <i name="e_0_energy">    -45.31432277 </i>
   </energy>
  </scstep>
  <scstep>
   <time name="dav">    1.69    1.69</time>
   <time name="total">    1.93    1.94</time>
   <energy>
    <i name="alphaZ">     50.90577593 </i>
    <i name="ewald">  41042.85304668 </i>
    <i name="hartreedc"> -63882.91197673 </i>
    <i name="XCdc">   -261.38303187 </i>
    <i name="pawpsdc">  24929.41899422 </i>
    <i name="pawaedc"> -23910.82764876 </i>
    <i name="eentropy">      0.00000000 </i>
    <i name="bandstr">  -1868.93798177 </i>
    <i name="atom">  23855.56849199 </i>
    <i name="e_fr_energy">    -45.31433031 </i>
    <i name="e_wo_entrp">    -45.31433031 </i>
    <i name="e_0_energy">    -45.31433031 </i>
   </energy>
  </scstep>
  <structure>
   <crystal>
    <varray name="basis" >
     <v>      20.67605111       0.00000000       0.00000000 </v>
     <v>       0.00000000      20.67605111       0.00000000 </v>
     <v>       0.00000000       0.00000000      20.67605111 </v>
    </varray>
    <i name="volume">   8838.99302660 </i>
    <varray name="rec_basis" >
     <v>       0.04836513       0.00000000       0.00000000 </v>
     <v>       0.00000000       0.04836513       0.00000000 </v>
     <v>       0.00000000       0.00000000       0.04836513 </v>
    </varray>
   </crystal>
   <varray name="positions" >
    <v>       0.49456746       0.46184767       0.65614718 </v>
    <v>       0.43720320       0.54703777       0.56879636 </v>
    <v>       0.47587450       0.67144140       0.57798256 </v>
    <v>       0.45529513       0.35261353       0.47003375 </v>
    <v>       0.49043059       0.44086222       0.37745504 </v>
    <v>       0.56803719       0.61130326       0.49827957 </v>
    <v>       0.69906335       0.53360051       0.64548191 </v>
    <v>       0.60198065       0.49854297       0.72425539 </v>
    <v>       0.46938344       0.56612552       0.41266700 </v>
    <v>       0.68957754       0.62068839       0.42743714 </v>
    <v>       0.59458330       0.52110024       0.39473621 </v>
    <v>       0.53065483       0.47033100       0.50560608 </v>
    <v>       0.47248832       0.69402268       0.44864896 </v>
    <v>       0.31782498       0.36390309       0.48711940 </v>
    <v>       0.52854581       0.35264649       0.57305445 </v>
    <v>       0.38081739       0.48118954       0.46023404 </v>
    <v>       0.62047785       0.43345841       0.60594381 </v>
    <v>       0.57057359       0.65124835       0.37372706 </v>
    <v>       0.37456868       0.37547469       0.36884831 </v>
    <v>       0.56490025       0.57185159       0.62063471 </v>
    <v>       0.40195601       0.41585947       0.57630838 </v>
    <v>       0.66422766       0.52221864       0.51604654 </v>
    <v>       0.36676651       0.62051790       0.48144622 </v>
   </varray>
  </structure>
  <varray name="forces" >
   <v>       0.27753556      -0.13991630       0.04911979 </v>
   <v>      -0.07612332       0.13913570      -0.10576855 </v>
   <v>      -0.13316400       0.05818745       0.17669378 </v>
   <v>      -0.32635212      -0.12582904      -0.20200998 </v>
   <v>       0.04508569      -0.24012548      -0.24263514 </v>
   <v>       0.06650359       0.14908928      -0.09879544 </v>
   <v>       0.19813705       0.41831082       0.06243738 </v>
   <v>      -0.02353753       0.00218455       0.36478089 </v>
   <v>      -0.06431911       0.16856604      -0.06143163 </v>
   <v>       0.03746407      -0.19115210      -0.08822310 </v>
   <v>       0.57805516      -0.02308046       0.07728549 </v>
   <v>       0.12672994      -0.18532736       0.07657801 </v>
   <v>      -0.11542499       0.30652976      -0.04769542 </v>
   <v>      -0.16120179      -0.05881344       0.03184080 </v>
   <v>      -0.14343314      -0.17206486       0.29068171 </v>
   <v>      -0.23301972      -0.20006204      -0.01831764 </v>
   <v>       0.18515085       0.34583153       0.15659725 </v>
   <v>       0.16254491       0.13046821      -0.33231873 </v>
   <v>      -0.25660742       0.12042736      -0.30759239 </v>
   <v>       0.11984643      -0.15229042       0.12276069 </v>
   <v>      -0.15027788      -0.28447702      -0.07526206 </v>
   <v>       0.03570088       0.01272558      -0.12494664 </v>
   <v>      -0.14929310      -0.07831778       0.29622092 </v>
  </varray>
  <varray name="stress" >
   <v>      -0.22757107       0.36488567       0.19700760 </v>
   <v>       0.36488568      -0.80021339       0.05207442 </v>
   <v>       0.19700761       0.05207441      -0.28199077 </v>
  </varray>
  <energy>
   <i name="e_fr_energy">    -45.31433031 </i>
   <i name="e_wo_entrp">    -45.31433031 </i>
   <i name="e_0_energy">      0.00000000 </i>
  </energy>
  <time name="totalsc">   11.56   11.63</time>
 </calculation>
 <calculation>
  <scstep>
   <time name="dav">    2.33    2.33</time>
   <time name="total">    2.67    2.68</time>
   <energy>
    <i name="alphaZ">     50.90577593 </i>
    <i name="ewald">  40894.01570526 </i>
    <i name="hartreedc"> -63735.18616986 </i>
    <i name="XCdc">   -261.58192239 </i>
    <i name="pawpsdc">  24925.76276797 </i>
    <i name="pawaedc"> -23907.11311087 </i>
    <i name="eentropy">      0.00000000 </i>
    <i name="bandstr">  -1867.75137778 </i>
    <i name="atom">  23855.56849199 </i>
    <i name="e_fr_energy">    -45.37983974 </i>
    <i name="e_wo_entrp">    -45.37983974 </i>
    <i name="e_0_energy">    -45.37983974 </i>
   </energy>
  </scstep>
  <scstep>
   <time name="dav">    2.42    2.42</time>
   <time name="total">    2.75    2.76</time>
   <energy>
    <i name="e_fr_energy">    -45.38805096 </i>
    <i name="e_wo_entrp">    -45.38805096 </i>
    <i name="e_0_energy">    -45.38805096 </i>
   </energy>
  </scstep>
  <scstep>
   <time name="dav">    2.42    2.42</time>
   <time name="total">    2.75    3.74</time>
   <energy>
    <i name="e_fr_energy">    -45.38791029 </i>
    <i name="e_wo_entrp">    -45.38791029 </i>
    <i name="e_0_energy">    -45.38791029 </i>
   </energy>
  </scstep>
  <scstep>
   <time name="dav">    2.40    2.40</time>
   <time name="total">    2.73    7.05</time>
   <energy>
    <i name="e_fr_energy">    -45.38774357 </i>
    <i name="e_wo_entrp">    -45.38774357 </i>
    <i name="e_0_energy">    -45.38774357 </i>
   </energy>
  </scstep>
  <scstep>
   <time name="dav">    1.70    1.70</time>
   <time name="total">    1.94    1.95</time>
   <energy>
    <i name="alphaZ">     50.90577593 </i>
    <i name="ewald">  40894.01570526 </i>
    <i name="hartreedc"> -63737.05200344 </i>
    <i name="XCdc">   -261.53994313 </i>
    <i name="pawpsdc">  24896.90192539 </i>
    <i name="pawaedc"> -23877.77861012 </i>
    <i name="eentropy">      0.00000000 </i>
    <i name="bandstr">  -1866.40908070 </i>
    <i name="atom">  23855.56849199 </i>
    <i name="e_fr_energy">    -45.38773882 </i>
    <i name="e_wo_entrp">    -45.38773882 </i>
    <i name="e_0_energy">    -45.38773882 </i>
   </energy>
  </scstep>
  <structure>
   <crystal>
    <varray name="basis" >
     <v>      20.67605111       0.00000000       0.00000000 </v>
     <v>       0.00000000      20.67605111       0.00000000 </v>
     <v>       0.00000000       0.00000000      20.67605111 </v>
    </varray>
    <i name="volume">   8838.99302660 </i>
    <varray name="rec_basis" >
     <v>       0.04836513       0.00000000       0.00000000 </v>
     <v>       0.00000000       0.04836513       0.00000000 </v>
     <v>       0.00000000       0.00000000       0.04836513 </v>
    </varray>
   </crystal>
   <varray name="positions" >
    <v>       0.49499397       0.46164680       0.65624308 </v>
    <v>       0.43707595       0.54727808       0.56863814 </v>
    <v>       0.47567161       0.67152977       0.57825401 </v>
    <v>       0.45480565       0.35242699       0.46971758 </v>
    <v>       0.49048189       0.44047385       0.37707744 </v>
    <v>       0.56815011       0.61152019       0.49812855 </v>
    <v>       0.69937220       0.53420845       0.64556535 </v>
    <v>       0.60192701       0.49853774       0.72479575 </v>
    <v>       0.46926988       0.56640242       0.41257273 </v>
    <v>       0.68962604       0.62040537       0.42731506 </v>
    <v>       0.59546687       0.52107166       0.39484540 </v>
    <v>       0.53084754       0.47006039       0.50573043 </v>
    <v>       0.47230895       0.69448839       0.44857656 </v>
    <v>       0.31759682       0.36382283       0.48717965 </v>
    <v>       0.52833513       0.35237075       0.57349989 </v>
    <v>       0.38046368       0.48088553       0.46021448 </v>
    <v>       0.62076798       0.43397910       0.60617545 </v>
    <v>       0.57082866       0.65144855       0.37321977 </v>
    <v>       0.37419968       0.37564822       0.36839982 </v>
    <v>       0.56507942       0.57161918       0.62083586 </v>
    <v>       0.40171167       0.41542451       0.57618280 </v>
    <v>       0.66427515       0.52223949       0.51584855 </v>
    <v>       0.36654235       0.62039706       0.48187371 </v>
   </varray>
  </structure>
  <varray name="forces" >
   <v>       0.23014499      -0.14249310       0.00383496 </v>
   <v>      -0.04203334       0.06386605      -0.09820105 </v>
   <v>      -0.11217840       0.05046163       0.14376771 </v>
   <v>      -0.28811785      -0.11437264      -0.15359531 </v>
   <v>       0.06961853      -0.15984552      -0.18722522 </v>
   <v>       0.03375278       0.14495817      -0.08254562 </v>
   <v>       0.15134998       0.40087364       0.07406503 </v>
   <v>       0.01402264       0.01781666       0.33513375 </v>
   <v>      -0.02717631       0.10745528      -0.04912252 </v>
   <v>       0.04808876      -0.17599687      -0.09749906 </v>
   <v>       0.47493526      -0.03187157       0.08086244 </v>
   <v>       0.10957258      -0.17930234       0.05301819 </v>
   <v>      -0.09094988       0.26229362      -0.03946864 </v>
   <v>      -0.16716061      -0.06674057       0.00433025 </v>
   <v>      -0.13679656      -0.11879324       0.24032102 </v>
   <v>      -0.19898683      -0.16856466      -0.03101984 </v>
   <v>       0.13745216       0.30054030       0.14797720 </v>
   <v>       0.12339522       0.10765993      -0.27592182 </v>
   <v>      -0.25386616       0.11854187      -0.30514829 </v>
   <v>       0.10839818      -0.12662838       0.07718241 </v>
   <v>      -0.09585724      -0.23579143      -0.04156638 </v>
   <v>       0.04329602       0.00682449      -0.08856486 </v>
   <v>      -0.13090393      -0.06089133       0.28938565 </v>
  </varray>
  <varray name="stress" >
   <v>      -0.39230489       0.33377399       0.19935630 </v>
   <v>       0.33377398      -0.91997879       0.04754645 </v>
   <v>       0.19935630       0.04754644      -0.43725994 </v>
  </varray>
  <energy>
   <i name="e_fr_energy">    -45.38773882 </i>
   <i name="e_wo_entrp">    -45.38773882 </i>
   <i name="e_0_energy">      0.00000000 </i>
  </energy>
  <time name="totalsc">   16.98   22.36</time>
 </calculation>
 <calculation>
  <scstep>
   <time name="dav">    2.32    2.32</time>
   <time name="total">    2.66    2.77</time>
   <energy>
    <i name="alphaZ">     50.90577593 </i>
    <i name="ewald">  40598.26546516 </i>
    <i name="hartreedc"> -63442.99838676 </i>
    <i name="XCdc">   -261.92640418 </i>
    <i name="pawpsdc">  24897.10889696 </i>
    <i name="pawaedc"> -23877.98826663 </i>
    <i name="eentropy">      0.00000000 </i>
    <i name="bandstr">  -1864.39849189 </i>
    <i name="atom">  23855.56849199 </i>
    <i name="e_fr_energy">    -45.46291942 </i>
    <i name="e_wo_entrp">    -45.46291942 </i>
    <i name="e_0_energy">    -45.46291942 </i>
   </energy>
  </scstep>
  <scstep>
   <time name="dav">    2.39    2.39</time>
   <time name="total">    2.72    2.72</time>
   <energy>
    <i name="e_fr_energy">    -45.49514222 </i>
    <i name="e_wo_entrp">    -45.49514222 </i>
    <i name="e_0_energy">    -45.49514222 </i>
   </energy>
  </scstep>
  <scstep>
   <time name="dav">    2.42    2.43</time>
   <time name="total">    2.76    2.77</time>
   <energy>
    <i name="e_fr_energy">    -45.49466272 </i>
    <i name="e_wo_entrp">    -45.49466272 </i>
    <i name="e_0_energy">    -45.49466272 </i>
   </energy>
  </scstep>
  <scstep>
   <time name="dav">    2.40    2.40</time>
   <time name="total">    2.73    2.73</time>
   <energy>
    <i name="e_fr_energy">    -45.49393236 </i>
    <i name="e_wo_entrp">    -45.49393236 </i>
    <i name="e_0_energy">    -45.49393236 </i>
   </energy>
  </scstep>
  <scstep>
   <time name="dav">    1.74    1.74</time>
   <time name="total">    1.98    1.98</time>
   <energy>
    <i name="alphaZ">     50.90577593 </i>
    <i name="ewald">  40598.26546516 </i>
    <i name="hartreedc"> -63446.73421541 </i>
    <i name="XCdc">   -261.84515064 </i>
    <i name="pawpsdc">  24844.35503409 </i>
    <i name="pawaedc"> -23824.34955961 </i>
    <i name="eentropy">      0.00000000 </i>
    <i name="bandstr">  -1861.65977994 </i>
    <i name="atom">  23855.56849199 </i>
    <i name="e_fr_energy">    -45.49393842 </i>
    <i name="e_wo_entrp">    -45.49393842 </i>
    <i name="e_0_energy">    -45.49393842 </i>
   </energy>
  </scstep>
  <structure>
   <crystal>
    <varray name="basis" >
     <v>      20.67605111       0.00000000       0.00000000 </v>
     <v>       0.00000000      20.67605111       0.00000000 </v>
     <v>       0.00000000       0.00000000      20.67605111 </v>
    </varray>
    <i name="volume">   8838.99302660 </i>
    <varray name="rec_basis" >
     <v>       0.04836513       0.00000000       0.00000000 </v>
     <v>       0.00000000       0.04836513       0.00000000 </v>
     <v>       0.00000000       0.00000000       0.04836513 </v>
    </varray>
   </crystal>
   <varray name="positions" >
    <v>       0.49584700       0.46124507       0.65643490 </v>
    <v>       0.43682145       0.54775870       0.56832170 </v>
    <v>       0.47526583       0.67170649       0.57879692 </v>
    <v>       0.45382669       0.35205391       0.46908524 </v>
    <v>       0.49058451       0.43969712       0.37632226 </v>
    <v>       0.56837596       0.61195406       0.49782652 </v>
    <v>       0.69998988       0.53542432       0.64573223 </v>
    <v>       0.60181975       0.49852728       0.72587649 </v>
    <v>       0.46904276       0.56695623       0.41238418 </v>
    <v>       0.68972304       0.61983933       0.42707090 </v>
    <v>       0.59723401       0.52101451       0.39506377 </v>
    <v>       0.53123296       0.46951918       0.50597912 </v>
    <v>       0.47195020       0.69541980       0.44843176 </v>
    <v>       0.31714052       0.36366231       0.48730015 </v>
    <v>       0.52791375       0.35181926       0.57439079 </v>
    <v>       0.37975624       0.48027752       0.46017534 </v>
    <v>       0.62134825       0.43502049       0.60663873 </v>
    <v>       0.57133882       0.65184895       0.37220521 </v>
    <v>       0.37346167       0.37599529       0.36750284 </v>
    <v>       0.56543776       0.57115437       0.62123816 </v>
    <v>       0.40122300       0.41455459       0.57593164 </v>
    <v>       0.66437014       0.52228119       0.51545255 </v>
    <v>       0.36609403       0.62015537       0.48272867 </v>
   </varray>
  </structure>
  <varray name="forces" >
   <v>       0.12650838      -0.14200593      -0.07982702 </v>
   <v>       0.03352056      -0.08923723      -0.07049183 </v>
   <v>      -0.06460512       0.03549447       0.07328503 </v>
   <v>      -0.19148475      -0.08523506      -0.06654155 </v>
   <v>       0.10994546      -0.00592859      -0.07728472 </v>
   <v>      -0.03198093       0.13137241      -0.05019504 </v>
   <v>       0.06208668       0.34500525       0.08794805 </v>
   <v>       0.08646767       0.04787666       0.26700572 </v>
   <v>       0.04046318      -0.00374921      -0.02068077 </v>
   <v>       0.07304034      -0.13641253      -0.11392170 </v>
   <v>       0.23051434      -0.05151802       0.07434660 </v>
   <v>       0.07345657      -0.15755177       0.00371209 </v>
   <v>      -0.03905977       0.15566527      -0.02204694 </v>
   <v>      -0.17889738      -0.08080028      -0.05251700 </v>
   <v>      -0.11868782      -0.01339246       0.13406544 </v>
   <v>      -0.11737013      -0.09451035      -0.05572226 </v>
   <v>       0.04679120       0.19771820       0.13608072 </v>
   <v>       0.04100264       0.05764621      -0.14965759 </v>
   <v>      -0.24289296       0.11487825      -0.26474046 </v>
   <v>       0.08029673      -0.06731258      -0.01892525 </v>
   <v>       0.01358963      -0.13275505       0.02298586 </v>
   <v>       0.05934301      -0.00517391      -0.00574159 </v>
   <v>      -0.09204754      -0.02007375       0.24886420 </v>
  </varray>
  <varray name="stress" >
   <v>      -0.70039318       0.27776772       0.20680207 </v>
   <v>       0.27776772      -1.14861774       0.04162150 </v>
   <v>       0.20680208       0.04162150      -0.73511689 </v>
  </varray>
  <energy>
   <i name="e_fr_energy">    -45.49393842 </i>
   <i name="e_wo_entrp">    -45.49393842 </i>
   <i name="e_0_energy">      0.00000000 </i>
  </energy>
  <time name="totalsc">   16.99   17.13</time>
 </calculation>
 <calculation>
  <scstep>
   <time name="dav">    2.31    2.31</time>
   <time name="total">    2.65    2.66</time>
   <energy>
    <i name="alphaZ">     50.90577593 </i>
    <i name="ewald">  40014.31873713 </i>
    <i name="hartreedc"> -62865.70832047 </i>
    <i name="XCdc">   -262.55569459 </i>
    <i name="pawpsdc">  24844.65211942 </i>
    <i name="pawaedc"> -23824.64906118 </i>
    <i name="eentropy">      0.00000000 </i>
    <i name="bandstr">  -1857.96386381 </i>
    <i name="atom">  23855.56849199 </i>
    <i name="e_fr_energy">    -45.43181558 </i>
    <i name="e_wo_entrp">    -45.43181558 </i>
    <i name="e_0_energy">    -45.43181558 </i>
   </energy>
  </scstep>
  <scstep>
   <time name="dav">    2.38    2.38</time>
   <time name="total">    2.71    2.75</time>
   <energy>
    <i name="e_fr_energy">    -45.56019320 </i>
    <i name="e_wo_entrp">    -45.56019320 </i>
    <i name="e_0_energy">    -45.56019320 </i>
   </energy>
  </scstep>
  <scstep>
   <time name="dav">    2.43    2.43</time>
   <time name="total">    2.76    2.77</time>
   <energy>
    <i name="e_fr_energy">    -45.55909715 </i>
    <i name="e_wo_entrp">    -45.55909715 </i>
    <i name="e_0_energy">    -45.55909715 </i>
   </energy>
  </scstep>
  <scstep>
   <time name="dav">    2.36    2.36</time>
   <time name="total">    2.70    2.70</time>
   <energy>
    <i name="e_fr_energy">    -45.55587993 </i>
    <i name="e_wo_entrp">    -45.55587993 </i>
    <i name="e_0_energy">    -45.55587993 </i>
   </energy>
  </scstep>
  <scstep>
   <time name="dav">    2.42    2.42</time>
   <time name="total">    2.76    2.76</time>
   <energy>
    <i name="e_fr_energy">    -45.55595626 </i>
    <i name="e_wo_entrp">    -45.55595626 </i>
    <i name="e_0_energy">    -45.55595626 </i>
   </energy>
  </scstep>
  <scstep>
   <time name="dav">    1.82    1.82</time>
   <time name="total">    2.06    2.06</time>
   <energy>
    <i name="alphaZ">     50.90577593 </i>
    <i name="ewald">  40014.31873713 </i>
    <i name="hartreedc"> -62872.58368422 </i>
    <i name="XCdc">   -262.40274675 </i>
    <i name="pawpsdc">  24754.78908120 </i>
    <i name="pawaedc"> -23733.20469790 </i>
    <i name="eentropy">      0.00000000 </i>
    <i name="bandstr">  -1852.94694625 </i>
    <i name="atom">  23855.56849199 </i>
    <i name="e_fr_energy">    -45.55598888 </i>
    <i name="e_wo_entrp">    -45.55598888 </i>
    <i name="e_0_energy">    -45.55598888 </i>
   </energy>
  </scstep>
  <structure>
   <crystal>
    <varray name="basis" >
     <v>      20.67605111       0.00000000       0.00000000 </v>
     <v>       0.00000000      20.67605111       0.00000000 </v>
     <v>       0.00000000       0.00000000      20.67605111 </v>
    </varray>
    <i name="volume">   8838.99302660 </i>
    <varray name="rec_basis" >
     <v>       0.04836513       0.00000000       0.00000000 </v>
     <v>       0.00000000       0.04836513       0.00000000 </v>
     <v>       0.00000000       0.00000000       0.04836513 </v>
    </varray>
   </crystal>
   <varray name="positions" >
    <v>       0.49755305       0.46044161       0.65681852 </v>
    <v>       0.43631245       0.54871993       0.56768883 </v>
    <v>       0.47445426       0.67205994       0.57988273 </v>
    <v>       0.45186877       0.35130776       0.46782055 </v>
    <v>       0.49078974       0.43814365       0.37481189 </v>
    <v>       0.56882766       0.61282178       0.49722246 </v>
    <v>       0.70122524       0.53785607       0.64606599 </v>
    <v>       0.60160523       0.49850636       0.72803795 </v>
    <v>       0.46858851       0.56806385       0.41200710 </v>
    <v>       0.68991705       0.61870724       0.42658257 </v>
    <v>       0.60076829       0.52090022       0.39550052 </v>
    <v>       0.53200381       0.46843674       0.50647650 </v>
    <v>       0.47123270       0.69728261       0.44814218 </v>
    <v>       0.31622790       0.36334127       0.48754116 </v>
    <v>       0.52707100       0.35071629       0.57617258 </v>
    <v>       0.37834137       0.47906149       0.46009707 </v>
    <v>       0.62250880       0.43710326       0.60756530 </v>
    <v>       0.57235914       0.65264974       0.37017607 </v>
    <v>       0.37198567       0.37668942       0.36570887 </v>
    <v>       0.56615445       0.57022475       0.62204276 </v>
    <v>       0.40024565       0.41281476       0.57542931 </v>
    <v>       0.66456011       0.52236458       0.51466056 </v>
    <v>       0.36519738       0.61967201       0.48443859 </v>
   </varray>
  </structure>
  <varray name="forces" >
   <v>      -0.08187981      -0.13210388      -0.19991171 </v>
   <v>       0.19012302      -0.36849693      -0.00650907 </v>
   <v>       0.02622156       0.01805787      -0.04786211 </v>
   <v>      -0.01560630      -0.02393296       0.04362440 </v>
   <v>       0.15904825       0.23505083       0.11295978 </v>
   <v>      -0.15164171       0.10755558       0.00339863 </v>
   <v>      -0.08863252       0.23247495       0.10384381 </v>
   <v>       0.20450541       0.10197406       0.14380789 </v>
   <v>       0.13110780      -0.16499646       0.04701694 </v>
   <v>       0.13856094      -0.05287356      -0.13725897 </v>
   <v>      -0.21365339      -0.10040113       0.01962075 </v>
   <v>       0.01039080      -0.12058482      -0.06507878 </v>
   <v>       0.04997939      -0.06797120       0.02185098 </v>
   <v>      -0.21600022      -0.11027299      -0.15596984 </v>
   <v>      -0.08880225       0.16482146      -0.05097380 </v>
   <v>       0.04612367       0.05918192      -0.09266574 </v>
   <v>      -0.08592597       0.01538832       0.10182258 </v>
   <v>      -0.10652247      -0.04272045       0.07053912 </v>
   <v>      -0.20875815       0.11013849      -0.15377617 </v>
   <v>       0.02944317       0.05002345      -0.18761757 </v>
   <v>       0.20976488       0.04761510       0.14108798 </v>
   <v>       0.09468224      -0.02738679       0.18144565 </v>
   <v>      -0.03252832       0.06945913       0.10660523 </v>
  </varray>
  <varray name="stress" >
   <v>      -1.18734427       0.18855406       0.23475084 </v>
   <v>       0.18855407      -1.50899590       0.03848313 </v>
   <v>       0.23475083       0.03848313      -1.22254455 </v>
  </varray>
  <energy>
   <i name="e_fr_energy">    -45.55598888 </i>
   <i name="e_wo_entrp">    -45.55598888 </i>
   <i name="e_0_energy">      0.00000000 </i>
  </energy>
  <time name="totalsc">   19.77   20.09</time>
 </calculation>
 <calculation>
  <scstep>
   <time name="dav">    2.32    2.33</time>
   <time name="total">    2.66    2.68</time>
   <energy>
    <i name="alphaZ">     50.90577593 </i>
    <i name="ewald">  40105.99273973 </i>
    <i name="hartreedc"> -62963.97868943 </i>
    <i name="XCdc">   -262.29212677 </i>
    <i name="pawpsdc">  24755.21329889 </i>
    <i name="pawaedc"> -23733.62862555 </i>
    <i name="eentropy">      0.00000000 </i>
    <i name="bandstr">  -1853.33640389 </i>
    <i name="atom">  23855.56849199 </i>
    <i name="e_fr_energy">    -45.55553910 </i>
    <i name="e_wo_entrp">    -45.55553910 </i>
    <i name="e_0_energy">    -45.55553910 </i>
   </energy>
  </scstep>
  <scstep>
   <time name="dav">    2.46    2.46</time>
   <time name="total">    2.80    2.80</time>
   <energy>
    <i name="e_fr_energy">    -45.55892496 </i>
    <i name="e_wo_entrp">    -45.55892496 </i>
    <i name="e_0_energy">    -45.55892496 </i>
   </energy>
  </scstep>
  <scstep>
   <time name="dav">    2.44    2.44</time>
   <time name="total">    2.68    2.70</time>
   <energy>
    <i name="alphaZ">     50.90577593 </i>
    <i name="ewald">  40105.99273973 </i>
    <i name="hartreedc"> -62963.39128939 </i>
    <i name="XCdc">   -262.31141565 </i>
    <i name="pawpsdc">  24763.05297392 </i>
    <i name="pawaedc"> -23741.59963572 </i>
    <i name="eentropy">      0.00000000 </i>
    <i name="bandstr">  -1853.77662679 </i>
    <i name="atom">  23855.56849199 </i>
    <i name="e_fr_energy">    -45.55898598 </i>
    <i name="e_wo_entrp">    -45.55898598 </i>
    <i name="e_0_energy">    -45.55898598 </i>
   </energy>
  </scstep>
  <structure>
   <crystal>
    <varray name="basis" >
     <v>      20.67605111       0.00000000       0.00000000 </v>
     <v>       0.00000000      20.67605111       0.00000000 </v>
     <v>       0.00000000       0.00000000      20.67605111 </v>
    </varray>
    <i name="volume">   8838.99302660 </i>
    <varray name="rec_basis" >
     <v>       0.04836513       0.00000000       0.00000000 </v>
     <v>       0.00000000       0.04836513       0.00000000 </v>
     <v>       0.00000000       0.00000000       0.04836513 </v>
    </varray>
   </crystal>
   <varray name="positions" >
    <v>       0.49728329       0.46056866       0.65675786 </v>
    <v>       0.43639293       0.54856794       0.56778890 </v>
    <v>       0.47458259       0.67200405       0.57971104 </v>
    <v>       0.45217836       0.35142574       0.46802053 </v>
    <v>       0.49075729       0.43838929       0.37505071 </v>
    <v>       0.56875623       0.61268458       0.49731797 </v>
    <v>       0.70102990       0.53747156       0.64601321 </v>
    <v>       0.60163915       0.49850967       0.72769617 </v>
    <v>       0.46866034       0.56788871       0.41206672 </v>
    <v>       0.68988637       0.61888625       0.42665978 </v>
    <v>       0.60020944       0.52091829       0.39543146 </v>
    <v>       0.53188193       0.46860790       0.50639785 </v>
    <v>       0.47134616       0.69698806       0.44818797 </v>
    <v>       0.31637220       0.36339203       0.48750305 </v>
    <v>       0.52720426       0.35089070       0.57589084 </v>
    <v>       0.37856509       0.47925377       0.46010945 </v>
    <v>       0.62232529       0.43677393       0.60741879 </v>
    <v>       0.57219780       0.65252312       0.37049692 </v>
    <v>       0.37221905       0.37657966       0.36599254 </v>
    <v>       0.56604113       0.57037175       0.62191553 </v>
    <v>       0.40040019       0.41308987       0.57550874 </v>
    <v>       0.66453007       0.52235139       0.51478579 </v>
    <v>       0.36533916       0.61974844       0.48416822 </v>
   </varray>
  </structure>
  <varray name="forces" >
   <v>      -0.04748440      -0.13493808      -0.18324741 </v>
   <v>       0.16449788      -0.32499061      -0.01824050 </v>
   <v>       0.01162573       0.01991740      -0.02954408 </v>
   <v>      -0.04247625      -0.03334392       0.02471406 </v>
   <v>       0.15388027       0.20082546       0.08446471 </v>
   <v>      -0.13334179       0.11146324      -0.00490312 </v>
   <v>      -0.06569617       0.25012240       0.10200767 </v>
   <v>       0.18807759       0.09301634       0.16317075 </v>
   <v>       0.11847764      -0.14224618       0.03600696 </v>
   <v>       0.12636116      -0.05914447      -0.13417440 </v>
   <v>      -0.14655629      -0.09251415       0.03226139 </v>
   <v>       0.02185822      -0.12882932      -0.05323104 </v>
   <v>       0.03680643      -0.03102975       0.01389942 </v>
   <v>      -0.20890227      -0.10544058      -0.13953619 </v>
   <v>      -0.09395469       0.13862449      -0.02176520 </v>
   <v>       0.01939585       0.03214408      -0.08767082 </v>
   <v>      -0.06851604       0.04249902       0.10755060 </v>
   <v>      -0.08394782      -0.02665371       0.03979416 </v>
   <v>      -0.21579145       0.11134254      -0.17471693 </v>
   <v>       0.03781526       0.03049509      -0.16195669 </v>
   <v>       0.17920089       0.01858191       0.12228072 </v>
   <v>       0.08864509      -0.02423188       0.14924909 </v>
   <v>      -0.03997482       0.05433066       0.13358686 </v>
  </varray>
  <varray name="stress" >
   <v>      -1.10789853       0.19927285       0.22936955 </v>
   <v>       0.19927285      -1.44746983       0.03838555 </v>
   <v>       0.22936955       0.03838555      -1.14164110 </v>
  </varray>
  <energy>
   <i name="e_fr_energy">    -45.55898598 </i>
   <i name="e_wo_entrp">    -45.55898598 </i>
   <i name="e_0_energy">      0.00000000 </i>
  </energy>
  <time name="totalsc">   12.28   12.36</time>
 </calculation>
 <calculation>
  <scstep>
   <time name="dav">    2.35    2.35</time>
   <time name="total">    2.69    2.70</time>
   <energy>
    <i name="alphaZ">     50.90577593 </i>
    <i name="ewald">  40035.37682135 </i>
    <i name="hartreedc"> -62893.13796846 </i>
    <i name="XCdc">   -262.42611320 </i>
    <i name="pawpsdc">  24767.15650361 </i>
    <i name="pawaedc"> -23745.78219577 </i>
    <i name="eentropy">      0.00000000 </i>
    <i name="bandstr">  -1853.24953380 </i>
    <i name="atom">  23855.56849199 </i>
    <i name="e_fr_energy">    -45.58821835 </i>
    <i name="e_wo_entrp">    -45.58821835 </i>
    <i name="e_0_energy">    -45.58821835 </i>
   </energy>
  </scstep>
  <scstep>
   <time name="dav">    2.42    2.42</time>
   <time name="total">    2.76    2.77</time>
   <energy>
    <i name="e_fr_energy">    -45.59702775 </i>
    <i name="e_wo_entrp">    -45.59702775 </i>
    <i name="e_0_energy">    -45.59702775 </i>
   </energy>
  </scstep>
  <scstep>
   <time name="dav">    2.46    2.46</time>
   <time name="total">    2.79    2.80</time>
   <energy>
    <i name="e_fr_energy">    -45.59698671 </i>
    <i name="e_wo_entrp">    -45.59698671 </i>
    <i name="e_0_energy">    -45.59698671 </i>
   </energy>
  </scstep>
  <scstep>
   <time name="dav">    2.39    2.40</time>
   <time name="total">    2.73    3.30</time>
   <energy>
    <i name="e_fr_energy">    -45.59682027 </i>
    <i name="e_wo_entrp">    -45.59682027 </i>
    <i name="e_0_energy">    -45.59682027 </i>
   </energy>
  </scstep>
  <scstep>
   <time name="dav">    1.78    1.78</time>
   <time name="total">    2.02    2.07</time>
   <energy>
    <i name="alphaZ">     50.90577593 </i>
    <i name="ewald">  40035.37682135 </i>
    <i name="hartreedc"> -62894.30479545 </i>
    <i name="XCdc">   -262.40395757 </i>
    <i name="pawpsdc">  24752.20936967 </i>
    <i name="pawaedc"> -23730.59326880 </i>
    <i name="eentropy">     -0.00000000 </i>
    <i name="bandstr">  -1852.35529076 </i>
    <i name="atom">  23855.56849199 </i>
    <i name="e_fr_energy">    -45.59685365 </i>
    <i name="e_wo_entrp">    -45.59685365 </i>
    <i name="e_0_energy">    -45.59685365 </i>
   </energy>
  </scstep>
  <structure>
   <crystal>
    <varray name="basis" >
     <v>      20.67605111       0.00000000       0.00000000 </v>
     <v>       0.00000000      20.67605111       0.00000000 </v>
     <v>       0.00000000       0.00000000      20.67605111 </v>
    </varray>
    <i name="volume">   8838.99302660 </i>
    <varray name="rec_basis" >
     <v>       0.04836513       0.00000000       0.00000000 </v>
     <v>       0.00000000       0.04836513       0.00000000 </v>
     <v>       0.00000000       0.00000000       0.04836513 </v>
    </varray>
   </crystal>
   <varray name="positions" >
    <v>       0.49739309       0.46016310       0.65639435 </v>
    <v>       0.43669834       0.54795892       0.56766751 </v>
    <v>       0.47450569       0.67209374       0.57978244 </v>
    <v>       0.45183422       0.35125599       0.46791555 </v>
    <v>       0.49112950       0.43864381       0.37504894 </v>
    <v>       0.56851363       0.61304549       0.49723025 </v>
    <v>       0.70103897       0.53834297       0.64628506 </v>
    <v>       0.60203499       0.49871626       0.72833766 </v>
    <v>       0.46886918       0.56770936       0.41209984 </v>
    <v>       0.69019525       0.61860946       0.42629596 </v>
    <v>       0.60032850       0.52069567       0.39555949 </v>
    <v>       0.53202897       0.46818066       0.50634126 </v>
    <v>       0.47133785       0.69715478       0.44818246 </v>
    <v>       0.31578640       0.36311408       0.48721977 </v>
    <v>       0.52688590       0.35106249       0.57606811 </v>
    <v>       0.37842908       0.47917168       0.45990229 </v>
    <v>       0.62231851       0.43713397       0.60777837 </v>
    <v>       0.57213851       0.65256484       0.37032881 </v>
    <v>       0.37154623       0.37691826       0.36537174 </v>
    <v>       0.56621719       0.57032231       0.62165337 </v>
    <v>       0.40067922       0.41291076       0.57572003 </v>
    <v>       0.66475360       0.52230747       0.51502097 </v>
    <v>       0.36513539       0.61980929       0.48468583 </v>
   </varray>
  </structure>
  <varray name="forces" >
   <v>       0.00246918      -0.07664496      -0.12325029 </v>
   <v>       0.15683423      -0.25283444      -0.03311430 </v>
   <v>      -0.00155733      -0.01979741      -0.03753152 </v>
   <v>      -0.06275159      -0.00434490      -0.00995907 </v>
   <v>       0.09442155       0.14309580       0.09222728 </v>
   <v>      -0.09226238       0.07446983      -0.00720324 </v>
   <v>      -0.08398218       0.22026491       0.09655131 </v>
   <v>       0.13640472       0.09582916       0.09263516 </v>
   <v>       0.09853532      -0.10819743       0.05598446 </v>
   <v>       0.09464264      -0.09415926      -0.11923424 </v>
   <v>      -0.13318461      -0.06417173       0.04434054 </v>
   <v>       0.03579522      -0.11301792      -0.06492044 </v>
   <v>       0.02251934      -0.05600913       0.01317640 </v>
   <v>      -0.14375163      -0.06067009      -0.12198704 </v>
   <v>      -0.06339843       0.11304760      -0.04000669 </v>
   <v>       0.02216335       0.01351755      -0.06817312 </v>
   <v>      -0.05595818       0.03271163       0.11218092 </v>
   <v>      -0.07409490      -0.04145473       0.05521205 </v>
   <v>      -0.15163961       0.12383303      -0.10713338 </v>
   <v>       0.03122800       0.01307443      -0.12463692 </v>
   <v>       0.10302244       0.00245510       0.04709213 </v>
   <v>       0.05879632       0.01486959       0.12728333 </v>
   <v>       0.00574850       0.04413337       0.12046668 </v>
  </varray>
  <varray name="stress" >
   <v>      -1.21863445       0.15635796       0.19699124 </v>
   <v>       0.15635796      -1.53169461       0.05444099 </v>
   <v>       0.19699124       0.05444099      -1.23923761 </v>
  </varray>
  <energy>
   <i name="e_fr_energy">    -45.59685365 </i>
   <i name="e_wo_entrp">    -45.59685365 </i>
   <i name="e_0_energy">     -0.00000000 </i>
  </energy>
  <time name="totalsc">   17.12   17.84</time>
 </calculation>
 <calculation>
  <scstep>
   <time name="dav">    2.32    2.32</time>
   <time name="total">    2.65    2.66</time>
   <energy>
    <i name="alphaZ">     50.90577593 </i>
    <i name="ewald">  39823.90683256 </i>
    <i name="hartreedc"> -62684.18914862 </i>
    <i name="XCdc">   -262.71265567 </i>
    <i name="pawpsdc">  24752.14694583 </i>
    <i name="pawaedc"> -23730.52793274 </i>
    <i name="eentropy">      0.00000000 </i>
    <i name="bandstr">  -1850.66871001 </i>
    <i name="atom">  23855.56849199 </i>
    <i name="e_fr_energy">    -45.57040072 </i>
    <i name="e_wo_entrp">    -45.57040072 </i>
    <i name="e_0_energy">    -45.57040072 </i>
   </energy>
  </scstep>
  <scstep>
   <time name="dav">    2.40    2.40</time>
   <time name="total">    2.73    2.74</time>
   <energy>
    <i name="e_fr_energy">    -45.64928823 </i>
    <i name="e_wo_entrp">    -45.64928823 </i>
    <i name="e_0_energy">    -45.64928823 </i>
   </energy>
  </scstep>
  <scstep>
   <time name="dav">    2.48    2.48</time>
   <time name="total">    2.82    2.84</time>
   <energy>
    <i name="e_fr_energy">    -45.64895046 </i>
    <i name="e_wo_entrp">    -45.64895046 </i>
    <i name="e_0_energy">    -45.64895046 </i>
   </energy>
  </scstep>
  <scstep>
   <time name="dav">    2.40    2.40</time>
   <time name="total">    2.73    2.74</time>
   <energy>
    <i name="e_fr_energy">    -45.64683354 </i>
    <i name="e_wo_entrp">    -45.64683354 </i>
    <i name="e_0_energy">    -45.64683354 </i>
   </energy>
  </scstep>
  <scstep>
   <time name="dav">    2.44    2.44</time>
   <time name="total">    2.78    3.18</time>
   <energy>
    <i name="e_fr_energy">    -45.64669690 </i>
    <i name="e_wo_entrp">    -45.64669690 </i>
    <i name="e_0_energy">    -45.64669690 </i>
   </energy>
  </scstep>
  <scstep>
   <time name="dav">    1.75    1.76</time>
   <time name="total">    1.99    2.02</time>
   <energy>
    <i name="alphaZ">     50.90577593 </i>
    <i name="ewald">  39823.90683256 </i>
    <i name="hartreedc"> -62686.90998828 </i>
    <i name="XCdc">   -262.65022234 </i>
    <i name="pawpsdc">  24711.06490785 </i>
    <i name="pawaedc"> -23688.72537020 </i>
    <i name="eentropy">      0.00000000 </i>
    <i name="bandstr">  -1848.80717323 </i>
    <i name="atom">  23855.56849199 </i>
    <i name="e_fr_energy">    -45.64674573 </i>
    <i name="e_wo_entrp">    -45.64674573 </i>
    <i name="e_0_energy">    -45.64674573 </i>
   </energy>
  </scstep>
  <structure>
   <crystal>
    <varray name="basis" >
     <v>      20.67605111       0.00000000       0.00000000 </v>
     <v>       0.00000000      20.67605111       0.00000000 </v>
     <v>       0.00000000       0.00000000      20.67605111 </v>
    </varray>
    <i name="volume">   8838.99302660 </i>
    <varray name="rec_basis" >
     <v>       0.04836513       0.00000000       0.00000000 </v>
     <v>       0.00000000       0.04836513       0.00000000 </v>
     <v>       0.00000000       0.00000000       0.04836513 </v>
    </varray>
   </crystal>
   <varray name="positions" >
    <v>       0.49772248       0.45894643       0.65530383 </v>
    <v>       0.43761458       0.54613185       0.56730335 </v>
    <v>       0.47427502       0.67236278       0.57999665 </v>
    <v>       0.45080179       0.35074676       0.46760061 </v>
    <v>       0.49224613       0.43940735       0.37504364 </v>
    <v>       0.56778583       0.61412822       0.49696707 </v>
    <v>       0.70106618       0.54095718       0.64710059 </v>
    <v>       0.60322252       0.49933601       0.73026213 </v>
    <v>       0.46949570       0.56717130       0.41219920 </v>
    <v>       0.69112190       0.61777911       0.42520447 </v>
    <v>       0.60068569       0.52002780       0.39594356 </v>
    <v>       0.53247010       0.46689896       0.50617148 </v>
    <v>       0.47131294       0.69765493       0.44816596 </v>
    <v>       0.31402900       0.36228023       0.48636991 </v>
    <v>       0.52593084       0.35157787       0.57659992 </v>
    <v>       0.37802104       0.47892542       0.45928083 </v>
    <v>       0.62229819       0.43821412       0.60885711 </v>
    <v>       0.57196063       0.65268999       0.36982445 </v>
    <v>       0.36952774       0.37793405       0.36350933 </v>
    <v>       0.56674537       0.57017401       0.62086688 </v>
    <v>       0.40151628       0.41237345       0.57635391 </v>
    <v>       0.66542418       0.52217571       0.51572651 </v>
    <v>       0.36452408       0.61999182       0.48623866 </v>
   </varray>
  </structure>
  <varray name="forces" >
   <v>       0.13007132       0.09978232       0.07556738 </v>
   <v>       0.12168070      -0.02926140      -0.07672520 </v>
   <v>      -0.03623589      -0.12902577      -0.05632754 </v>
   <v>      -0.11202052       0.07988562      -0.09716357 </v>
   <v>      -0.06575143      -0.03348132       0.10472667 </v>
   <v>       0.02665478      -0.02959449      -0.01097091 </v>
   <v>      -0.13115823       0.12213794       0.07160746 </v>
   <v>       0.00618645       0.10074179      -0.08704382 </v>
   <v>       0.02322852      -0.00720065       0.10880203 </v>
   <v>      -0.00123558      -0.14770353      -0.07199999 </v>
   <v>      -0.08015891       0.01921848       0.07859998 </v>
   <v>       0.08468501      -0.06260525      -0.10008195 </v>
   <v>      -0.02153413      -0.12093349       0.01087753 </v>
   <v>       0.04770682       0.05818485      -0.07627100 </v>
   <v>       0.03977242       0.00546682      -0.09644198 </v>
   <v>       0.03126750      -0.03968290      -0.01230463 </v>
   <v>      -0.00825372       0.00108816       0.11392858 </v>
   <v>      -0.04115924      -0.08076266       0.08097494 </v>
   <v>      -0.01497715       0.14150602       0.08445294 </v>
   <v>       0.01296188      -0.03122135      -0.01942208 </v>
   <v>      -0.12576561      -0.04574306      -0.15754410 </v>
   <v>      -0.02248204       0.12026789       0.05649205 </v>
   <v>       0.13651704       0.00893596       0.07626720 </v>
  </varray>
  <varray name="stress" >
   <v>      -1.46283249       0.03396318       0.11300306 </v>
   <v>       0.03396318      -1.72405778       0.10627980 </v>
   <v>       0.11300306       0.10627980      -1.46797246 </v>
  </varray>
  <energy>
   <i name="e_fr_energy">    -45.64674573 </i>
   <i name="e_wo_entrp">    -45.64674573 </i>
   <i name="e_0_energy">      0.00000000 </i>
  </energy>
  <time name="totalsc">   19.85   21.13</time>
 </calculation>
 <calculation>
  <scstep>
   <time name="dav">    2.31    2.32</time>
   <time name="total">    2.65    2.66</time>
   <energy>
    <i name="alphaZ">     50.90577593 </i>
    <i name="ewald">  39902.39775299 </i>
    <i name="hartreedc"> -62764.98937585 </i>
    <i name="XCdc">   -262.51524889 </i>
    <i name="pawpsdc">  24711.33036552 </i>
    <i name="pawaedc"> -23688.98761172 </i>
    <i name="eentropy">      0.00000000 </i>
    <i name="bandstr">  -1849.37465806 </i>
    <i name="atom">  23855.56849199 </i>
    <i name="e_fr_energy">    -45.66450809 </i>
    <i name="e_wo_entrp">    -45.66450809 </i>
    <i name="e_0_energy">    -45.66450809 </i>
   </energy>
  </scstep>
  <scstep>
   <time name="dav">    2.44    2.44</time>
   <time name="total">    2.78    2.84</time>
   <energy>
    <i name="e_fr_energy">    -45.67711047 </i>
    <i name="e_wo_entrp">    -45.67711047 </i>
    <i name="e_0_energy">    -45.67711047 </i>
   </energy>
  </scstep>
  <scstep>
   <time name="dav">    2.44    2.44</time>
   <time name="total">    2.77    2.78</time>
   <energy>
    <i name="e_fr_energy">    -45.67699619 </i>
    <i name="e_wo_entrp">    -45.67699619 </i>
    <i name="e_0_energy">    -45.67699619 </i>
   </energy>
  </scstep>
  <scstep>
   <time name="dav">    2.44    2.44</time>
   <time name="total">    2.77    2.78</time>
   <energy>
    <i name="e_fr_energy">    -45.67687470 </i>
    <i name="e_wo_entrp">    -45.67687470 </i>
    <i name="e_0_energy">    -45.67687470 </i>
   </energy>
  </scstep>
  <scstep>
   <time name="dav">    1.80    1.80</time>
   <time name="total">    2.04    2.04</time>
   <energy>
    <i name="alphaZ">     50.90577593 </i>
    <i name="ewald">  39902.39775299 </i>
    <i name="hartreedc"> -62764.52857611 </i>
    <i name="XCdc">   -262.54036469 </i>
    <i name="pawpsdc">  24728.35291312 </i>
    <i name="pawaedc"> -23706.28273756 </i>
    <i name="eentropy">      0.00000000 </i>
    <i name="bandstr">  -1849.55021784 </i>
    <i name="atom">  23855.56849199 </i>
    <i name="e_fr_energy">    -45.67696217 </i>
    <i name="e_wo_entrp">    -45.67696217 </i>
    <i name="e_0_energy">    -45.67696217 </i>
   </energy>
  </scstep>
  <structure>
   <crystal>
    <varray name="basis" >
     <v>      20.67605111       0.00000000       0.00000000 </v>
     <v>       0.00000000      20.67605111       0.00000000 </v>
     <v>       0.00000000       0.00000000      20.67605111 </v>
    </varray>
    <i name="volume">   8838.99302660 </i>
    <varray name="rec_basis" >
     <v>       0.04836513       0.00000000       0.00000000 </v>
     <v>       0.00000000       0.04836513       0.00000000 </v>
     <v>       0.00000000       0.00000000       0.04836513 </v>
    </varray>
   </crystal>
   <varray name="positions" >
    <v>       0.49825959       0.45905086       0.65534752 </v>
    <v>       0.43824434       0.54564404       0.56695097 </v>
    <v>       0.47409631       0.67195471       0.57983876 </v>
    <v>       0.45018246       0.35092767       0.46718496 </v>
    <v>       0.49224325       0.43944669       0.37541947 </v>
    <v>       0.56772940       0.61424837       0.49687249 </v>
    <v>       0.70059981       0.54194406       0.64752905 </v>
    <v>       0.60349340       0.49982834       0.73035173 </v>
    <v>       0.46971047       0.56703275       0.41261160 </v>
    <v>       0.69131144       0.61707366       0.42471683 </v>
    <v>       0.60047196       0.51995715       0.39630686 </v>
    <v>       0.53286725       0.46640530       0.50577572 </v>
    <v>       0.47123022       0.69732437       0.44820165 </v>
    <v>       0.31383280       0.36231508       0.48591747 </v>
    <v>       0.52587405       0.35170544       0.57636414 </v>
    <v>       0.37804815       0.47873104       0.45910644 </v>
    <v>       0.62226423       0.43844416       0.60949299 </v>
    <v>       0.57177525       0.65242551       0.37001031 </v>
    <v>       0.36905127       0.37865601       0.36342340 </v>
    <v>       0.56690260       0.57003059       0.62063232 </v>
    <v>       0.40123886       0.41209633       0.57591957 </v>
    <v>       0.66548365       0.52258099       0.51607754 </v>
    <v>       0.36488746       0.62006220       0.48683824 </v>
   </varray>
  </structure>
  <varray name="forces" >
   <v>       0.04279298       0.06959272       0.06390339 </v>
   <v>       0.10356686      -0.03630451      -0.07232913 </v>
   <v>      -0.03604474      -0.11044882      -0.04043779 </v>
   <v>      -0.06621293       0.04767341      -0.07138670 </v>
   <v>      -0.06988524      -0.04460177       0.06088732 </v>
   <v>       0.05439681      -0.03428155       0.01996695 </v>
   <v>      -0.10109582       0.11343577       0.04757079 </v>
   <v>      -0.01279339       0.09380933      -0.04728390 </v>
   <v>      -0.00832698      -0.01391921       0.09608719 </v>
   <v>      -0.00053931      -0.14926679      -0.06883070 </v>
   <v>      -0.04728065       0.01092816       0.06087750 </v>
   <v>       0.09729773      -0.05740291      -0.07484492 </v>
   <v>      -0.02812722      -0.07807230       0.00176848 </v>
   <v>       0.02136482       0.04861848      -0.05393590 </v>
   <v>       0.03443350       0.00247812      -0.10245702 </v>
   <v>       0.02376909       0.00132748      -0.00358412 </v>
   <v>       0.02814224      -0.01359626       0.06227932 </v>
   <v>      -0.01897090      -0.06251357       0.05591206 </v>
   <v>      -0.02503733       0.12949032       0.04770315 </v>
   <v>       0.00669938      -0.00082210      -0.01751500 </v>
   <v>      -0.08226581      -0.01562785      -0.09447651 </v>
   <v>      -0.02831580       0.09433726       0.06768634 </v>
   <v>       0.11243272       0.00516661       0.06243918 </v>
  </varray>
  <varray name="stress" >
   <v>      -1.38332156       0.02025944       0.07119787 </v>
   <v>       0.02025944      -1.63833851       0.09600972 </v>
   <v>       0.07119788       0.09600971      -1.37473062 </v>
  </varray>
  <energy>
   <i name="e_fr_energy">    -45.67696217 </i>
   <i name="e_wo_entrp">    -45.67696217 </i>
   <i name="e_0_energy">      0.00000000 </i>
  </energy>
  <time name="totalsc">   17.15   17.25</time>
 </calculation>
 <calculation>
  <scstep>
   <time name="dav">    2.32    2.32</time>
   <time name="total">    2.65    2.66</time>
   <energy>
    <i name="alphaZ">     50.90577593 </i>
    <i name="ewald">  40134.96533799 </i>
    <i name="hartreedc"> -62995.84922935 </i>
    <i name="XCdc">   -262.11793973 </i>
    <i name="pawpsdc">  24728.27320743 </i>
    <i name="pawaedc"> -23706.20359844 </i>
    <i name="eentropy">     -0.00000000 </i>
    <i name="bandstr">  -1851.15018244 </i>
    <i name="atom">  23855.56849199 </i>
    <i name="e_fr_energy">    -45.60813663 </i>
    <i name="e_wo_entrp">    -45.60813663 </i>
    <i name="e_0_energy">    -45.60813663 </i>
   </energy>
  </scstep>
  <scstep>
   <time name="dav">    2.38    2.39</time>
   <time name="total">    2.72    2.73</time>
   <energy>
    <i name="e_fr_energy">    -45.72434066 </i>
    <i name="e_wo_entrp">    -45.72434066 </i>
    <i name="e_0_energy">    -45.72434066 </i>
   </energy>
  </scstep>
  <scstep>
   <time name="dav">    2.44    2.44</time>
   <time name="total">    2.78    2.79</time>
   <energy>
    <i name="e_fr_energy">    -45.72269124 </i>
    <i name="e_wo_entrp">    -45.72269124 </i>
    <i name="e_0_energy">    -45.72269124 </i>
   </energy>
[...]
       <r>    -0.8144     0.0000   142.0000 </r>
       <r>    -0.7762     0.0000   143.0000 </r>
       <r>    -0.7380     0.0000   144.0000 </r>
       <r>    -0.6998     0.0000   144.0000 </r>
       <r>    -0.6616     0.0000   144.0000 </r>
       <r>    -0.6235     0.0000   144.0000 </r>
       <r>    -0.5853     0.0000   145.0000 </r>
       <r>    -0.5471     0.0000   145.0000 </r>
       <r>    -0.5089     0.0000   146.0000 </r>
       <r>    -0.4707     0.0000   146.0000 </r>
       <r>    -0.4325     0.0000   146.0000 </r>
       <r>    -0.3943     0.0000   147.0000 </r>
       <r>    -0.3561     0.0000   147.0000 </r>
       <r>    -0.3180     0.0000   147.0000 </r>
       <r>    -0.2798     0.0000   148.0000 </r>
       <r>    -0.2416     0.0000   149.0000 </r>
       <r>    -0.2034     0.0000   149.0000 </r>
       <r>    -0.1652     0.0000   149.0000 </r>
       <r>    -0.1270     0.0000   149.0000 </r>
       <r>    -0.0888     0.0000   149.0000 </r>
       <r>    -0.0507     0.0000   150.0000 </r>
       <r>    -0.0125     0.0000   150.0000 </r>
       <r>     0.0257     0.0000   150.0000 </r>
       <r>     0.0639     0.0000   150.0000 </r>
       <r>     0.1021     0.0000   150.0000 </r>
       <r>     0.1403     0.0000   150.0000 </r>
       <r>     0.1785     0.0000   150.0000 </r>
       <r>     0.2167     0.0000   151.0000 </r>
       <r>     0.2548     0.0000   151.0000 </r>
       <r>     0.2930     0.0000   151.0000 </r>
       <r>     0.3312     0.0000   151.0000 </r>
       <r>     0.3694     0.0000   151.0000 </r>
       <r>     0.4076     0.0000   152.0000 </r>
       <r>     0.4458     0.0000   153.0000 </r>
       <r>     0.4840     0.0000   153.0000 </r>
       <r>     0.5221     0.0000   153.0000 </r>
       <r>     0.5603     0.0000   153.0000 </r>
       <r>     0.5985     0.0000   153.0000 </r>
       <r>     0.6367     0.0000   154.0000 </r>
       <r>     0.6749     0.0000   155.0000 </r>
       <r>     0.7131     0.0000   157.0000 </r>
       <r>     0.7513     0.0000   158.0000 </r>
       <r>     0.7895     0.0000   159.0000 </r>
       <r>     0.8276     0.0000   160.0000 </r>
       <r>     0.8658     0.0000   161.0000 </r>
       <r>     0.9040     0.0000   162.0000 </r>
       <r>     0.9422     0.0000   163.0000 </r>
       <r>     0.9804     0.0000   164.0000 </r>
       <r>     1.0186     0.0000   164.0000 </r>
       <r>     1.0568     0.0000   164.0000 </r>
       <r>     1.0949     0.0000   164.0000 </r>
       <r>     1.1331     0.0000   164.0000 </r>
       <r>     1.1713     0.0000   164.0000 </r>
       <r>     1.2095     0.0000   164.0000 </r>
       <r>     1.2477     0.0000   164.0000 </r>
       <r>     1.2859     0.0000   164.0000 </r>
       <r>     1.3241     0.0000   164.0000 </r>
       <r>     1.3623     0.0000   164.0000 </r>
       <r>     1.4004     0.0000   164.0000 </r>
       <r>     1.4386     0.0000   164.0000 </r>
       <r>     1.4768     0.0000   164.0000 </r>
       <r>     1.5150     0.0000   164.0000 </r>
      </set>
      <set comment="spin 2">
       <r>    -9.9410     0.0000     0.0000 </r>
       <r>    -9.9028     0.0000     0.0000 </r>
       <r>    -9.8647     0.0000     0.0000 </r>
       <r>    -9.8265     0.0000     0.0000 </r>
       <r>    -9.7883     0.0000     0.0000 </r>
       <r>    -9.7501     0.0000     0.0000 </r>
       <r>    -9.7119     0.0000     0.0000 </r>
       <r>    -9.6737     0.0000     0.0000 </r>
       <r>    -9.6355     0.0000     0.0000 </r>
       <r>    -9.5973     0.0000     0.0000 </r>
       <r>    -9.5592     0.0000     0.0000 </r>
       <r>    -9.5210     0.0000     0.0000 </r>
       <r>    -9.4828     0.0000     0.0000 </r>
       <r>    -9.4446     0.0000     0.0000 </r>
       <r>    -9.4064     0.0000     0.0000 </r>
       <r>    -9.3682     0.0000     1.0000 </r>
       <r>    -9.3300     0.0000     1.0000 </r>
       <r>    -9.2919     0.0000     1.0000 </r>
       <r>    -9.2537     0.0000     1.0000 </r>
       <r>    -9.2155     0.0000     1.0000 </r>
       <r>    -9.1773     0.0000     1.0000 </r>
       <r>    -9.1391     0.0000     1.0000 </r>
       <r>    -9.1009     0.0000     3.0000 </r>
       <r>    -9.0627     0.0000     3.0000 </r>
       <r>    -9.0245     0.0000     3.0000 </r>
       <r>    -8.9864     0.0000     4.0000 </r>
       <r>    -8.9482     0.0000     6.0000 </r>
       <r>    -8.9100     0.0000     7.0000 </r>
       <r>    -8.8718     0.0000     8.0000 </r>
       <r>    -8.8336     0.0000     8.0000 </r>
       <r>    -8.7954     0.0000     9.0000 </r>
       <r>    -8.7572     0.0000    10.0000 </r>
       <r>    -8.7191     0.0000    11.0000 </r>
       <r>    -8.6809    26.1871    13.0000 </r>
       <r>    -8.6427     0.0000    13.0000 </r>
       <r>    -8.6045     0.0000    15.0000 </r>
       <r>    -8.5663     0.0000    16.0000 </r>
       <r>    -8.5281     0.0000    17.0000 </r>
       <r>    -8.4899     0.0000    18.0000 </r>
       <r>    -8.4517     0.0000    18.0000 </r>
       <r>    -8.4136     0.0000    21.0000 </r>
       <r>    -8.3754     0.0000    22.0000 </r>
       <r>    -8.3372     0.0000    24.0000 </r>
       <r>    -8.2990     0.0000    26.0000 </r>
       <r>    -8.2608     0.0000    26.0000 </r>
       <r>    -8.2226     0.0000    27.0000 </r>
       <r>    -8.1844     0.0000    29.0000 </r>
       <r>    -8.1462     0.0000    30.0000 </r>
       <r>    -8.1081     0.0000    32.0000 </r>
       <r>    -8.0699     0.0000    33.0000 </r>
       <r>    -8.0317     0.0000    35.0000 </r>
       <r>    -7.9935     0.0000    36.0000 </r>
       <r>    -7.9553     5.9034    37.2254 </r>
       <r>    -7.9171     0.0000    38.0000 </r>
       <r>    -7.8789     0.0000    40.0000 </r>
       <r>    -7.8408     0.0000    41.0000 </r>
       <r>    -7.8026     0.0000    42.0000 </r>
       <r>    -7.7644     0.0000    43.0000 </r>
       <r>    -7.7262     0.0000    45.0000 </r>
       <r>    -7.6880     0.0000    47.0000 </r>
       <r>    -7.6498     0.0000    48.0000 </r>
       <r>    -7.6116     0.0000    50.0000 </r>
       <r>    -7.5734     0.0000    52.0000 </r>
       <r>    -7.5353     0.0000    52.0000 </r>
       <r>    -7.4971     0.0000    53.0000 </r>
       <r>    -7.4589     0.0000    55.0000 </r>
       <r>    -7.4207    24.9548    56.9529 </r>
       <r>    -7.3825     0.0000    57.0000 </r>
       <r>    -7.3443     0.0000    59.0000 </r>
       <r>    -7.3061     0.0000    60.0000 </r>
       <r>    -7.2680     0.0000    63.0000 </r>
       <r>    -7.2298     0.0000    64.0000 </r>
       <r>    -7.1916     0.0000    66.0000 </r>
       <r>    -7.1534     0.0000    67.0000 </r>
       <r>    -7.1152     0.0000    69.0000 </r>
       <r>    -7.0770    26.1871    71.0000 </r>
       <r>    -7.0388     0.0000    72.0000 </r>
       <r>    -7.0006     0.0000    74.0000 </r>
       <r>    -6.9625     0.0000    77.0000 </r>
       <r>    -6.9243     0.0000    79.0000 </r>
       <r>    -6.8861     0.0000    82.0000 </r>
       <r>    -6.8479     0.0000    85.0000 </r>
       <r>    -6.8097     0.0000    88.0000 </r>
       <r>    -6.7715     0.0000    89.0000 </r>
       <r>    -6.7333     0.0000    93.0000 </r>
       <r>    -6.6952     0.0000    95.0000 </r>
       <r>    -6.6570     0.0000    98.0000 </r>
       <r>    -6.6188     0.0000    99.0000 </r>
       <r>    -6.5806     0.0000   101.0000 </r>
       <r>    -6.5424     0.0000   103.0000 </r>
       <r>    -6.5042     0.0000   106.0000 </r>
       <r>    -6.4660     0.0000   108.0000 </r>
       <r>    -6.4278     0.0000   110.0000 </r>
       <r>    -6.3897     0.0000   112.0000 </r>
       <r>    -6.3515     0.0000   113.0000 </r>
       <r>    -6.3133     0.0000   115.0000 </r>
       <r>    -6.2751     0.0000   117.0000 </r>
       <r>    -6.2369     0.0000   117.0000 </r>
       <r>    -6.1987     0.0000   118.0000 </r>
       <r>    -6.1605     0.0000   118.0000 </r>
       <r>    -6.1224     0.0000   118.0000 </r>
       <r>    -6.0842     0.0000   118.0000 </r>
       <r>    -6.0460     0.0000   119.0000 </r>
       <r>    -6.0078     0.0000   119.0000 </r>
       <r>    -5.9696     0.0000   119.0000 </r>
       <r>    -5.9314     0.0000   119.0000 </r>
       <r>    -5.8932     0.0000   119.0000 </r>
       <r>    -5.8550     0.0000   119.0000 </r>
       <r>    -5.8169     0.0000   119.0000 </r>
       <r>    -5.7787     0.0000   119.0000 </r>
       <r>    -5.7405     0.0000   119.0000 </r>
       <r>    -5.7023     0.0000   119.0000 </r>
       <r>    -5.6641     0.0000   119.0000 </r>
       <r>    -5.6259     0.0000   119.0000 </r>
       <r>    -5.5877     0.0000   119.0000 </r>
       <r>    -5.5495     0.0000   119.0000 </r>
       <r>    -5.5114     0.0000   119.0000 </r>
       <r>    -5.4732     0.0000   119.0000 </r>
       <r>    -5.4350     0.0000   120.0000 </r>
       <r>    -5.3968     0.0000   120.0000 </r>
       <r>    -5.3586     0.0000   120.0000 </r>
       <r>    -5.3204     0.0000   120.0000 </r>
       <r>    -5.2822     0.0000   120.0000 </r>
       <r>    -5.2441     0.0000   120.0000 </r>
       <r>    -5.2059     0.0000   120.0000 </r>
       <r>    -5.1677     0.0000   120.0000 </r>
       <r>    -5.1295     0.0000   120.0000 </r>
       <r>    -5.0913     0.0000   120.0000 </r>
       <r>    -5.0531     0.0000   121.0000 </r>
       <r>    -5.0149     0.0000   121.0000 </r>
       <r>    -4.9767     0.0000   121.0000 </r>
       <r>    -4.9386     0.0000   121.0000 </r>
       <r>    -4.9004     0.0000   121.0000 </r>
       <r>    -4.8622     0.0000   122.0000 </r>
       <r>    -4.8240     0.0000   122.0000 </r>
       <r>    -4.7858     0.0000   122.0000 </r>
       <r>    -4.7476     0.0000   122.0000 </r>
       <r>    -4.7094     0.0000   122.0000 </r>
       <r>    -4.6713     0.0000   122.0000 </r>
       <r>    -4.6331     0.0000   122.0000 </r>
       <r>    -4.5949     0.0000   122.0000 </r>
       <r>    -4.5567     0.0000   123.0000 </r>
       <r>    -4.5185     0.0000   123.0000 </r>
       <r>    -4.4803     0.0000   124.0000 </r>
       <r>    -4.4421     0.0000   124.0000 </r>
       <r>    -4.4039     0.0000   124.0000 </r>
       <r>    -4.3658     0.0000   124.0000 </r>
       <r>    -4.3276     0.0000   124.0000 </r>
       <r>    -4.2894     0.0000   124.0000 </r>
       <r>    -4.2512     0.0000   124.0000 </r>
       <r>    -4.2130     0.0000   124.0000 </r>
       <r>    -4.1748     0.0000   124.0000 </r>
       <r>    -4.1366     0.0000   124.0000 </r>
       <r>    -4.0985     0.0000   124.0000 </r>
       <r>    -4.0603     0.0000   124.0000 </r>
       <r>    -4.0221     0.0000   124.0000 </r>
       <r>    -3.9839     0.0000   124.0000 </r>
       <r>    -3.9457     0.0000   124.0000 </r>
       <r>    -3.9075     0.0000   124.0000 </r>
       <r>    -3.8693     0.0000   124.0000 </r>
       <r>    -3.8311     0.0000   125.0000 </r>
       <r>    -3.7930     0.0000   125.0000 </r>
       <r>    -3.7548     0.0000   125.0000 </r>
       <r>    -3.7166     0.0000   125.0000 </r>
       <r>    -3.6784     0.0000   126.0000 </r>
       <r>    -3.6402     0.0000   126.0000 </r>
       <r>    -3.6020     0.0000   126.0000 </r>
       <r>    -3.5638     0.0000   126.0000 </r>
       <r>    -3.5257     0.0000   126.0000 </r>
       <r>    -3.4875     0.0000   126.0000 </r>
       <r>    -3.4493     0.0000   126.0000 </r>
       <r>    -3.4111     0.0000   127.0000 </r>
       <r>    -3.3729     0.0000   127.0000 </r>
       <r>    -3.3347     0.0000   127.0000 </r>
       <r>    -3.2965     0.0000   127.0000 </r>
       <r>    -3.2583     0.0000   127.0000 </r>
       <r>    -3.2202     0.0000   127.0000 </r>
       <r>    -3.1820     0.0000   127.0000 </r>
       <r>    -3.1438     0.0000   127.0000 </r>
       <r>    -3.1056     0.0000   127.0000 </r>
       <r>    -3.0674     0.0000   127.0000 </r>
       <r>    -3.0292     0.0000   128.0000 </r>
       <r>    -2.9910     0.0000   128.0000 </r>
       <r>    -2.9528     0.0000   128.0000 </r>
       <r>    -2.9147     0.0000   128.0000 </r>
       <r>    -2.8765     0.0000   128.0000 </r>
       <r>    -2.8383     0.0000   129.0000 </r>
       <r>    -2.8001     0.0000   129.0000 </r>
       <r>    -2.7619     0.0000   130.0000 </r>
       <r>    -2.7237     0.0000   130.0000 </r>
       <r>    -2.6855     0.0000   130.0000 </r>
       <r>    -2.6474     0.0000   130.0000 </r>
       <r>    -2.6092     0.0000   131.0000 </r>
       <r>    -2.5710     0.0000   131.0000 </r>
       <r>    -2.5328     0.0000   131.0000 </r>
       <r>    -2.4946     0.0000   131.0000 </r>
       <r>    -2.4564     0.0000   131.0000 </r>
       <r>    -2.4182     0.0000   131.0000 </r>
       <r>    -2.3800     0.0000   132.0000 </r>
       <r>    -2.3419     0.0000   132.0000 </r>
       <r>    -2.3037     0.0000   132.0000 </r>
       <r>    -2.2655     0.0000   132.0000 </r>
       <r>    -2.2273     0.0000   132.0000 </r>
       <r>    -2.1891     0.0000   132.0000 </r>
       <r>    -2.1509     0.0000   132.0000 </r>
       <r>    -2.1127     0.0000   132.0000 </r>
       <r>    -2.0746     0.0000   132.0000 </r>
       <r>    -2.0364     0.0000   133.0000 </r>
       <r>    -1.9982     0.0000   134.0000 </r>
       <r>    -1.9600     0.0000   134.0000 </r>
       <r>    -1.9218     0.0000   134.0000 </r>
       <r>    -1.8836     0.0000   135.0000 </r>
       <r>    -1.8454     0.0000   135.0000 </r>
       <r>    -1.8072     0.0000   135.0000 </r>
       <r>    -1.7691     0.0000   135.0000 </r>
       <r>    -1.7309     0.0000   135.0000 </r>
       <r>    -1.6927     0.0000   135.0000 </r>
       <r>    -1.6545     0.0000   135.0000 </r>
       <r>    -1.6163     0.0000   136.0000 </r>
       <r>    -1.5781     0.0000   136.0000 </r>
       <r>    -1.5399     0.0000   136.0000 </r>
       <r>    -1.5018     0.0000   136.0000 </r>
       <r>    -1.4636     0.0000   137.0000 </r>
       <r>    -1.4254     0.0000   137.0000 </r>
       <r>    -1.3872     0.0000   137.0000 </r>
       <r>    -1.3490     0.0000   137.0000 </r>
       <r>    -1.3108     0.0000   137.0000 </r>
       <r>    -1.2726     0.0000   138.0000 </r>
       <r>    -1.2344     0.0000   138.0000 </r>
       <r>    -1.1963     0.0000   138.0000 </r>
       <r>    -1.1581     0.0000   138.0000 </r>
       <r>    -1.1199     0.0000   138.0000 </r>
       <r>    -1.0817     0.0000   138.0000 </r>
       <r>    -1.0435     0.0000   139.0000 </r>
       <r>    -1.0053     0.0000   139.0000 </r>
       <r>    -0.9671     0.0000   140.0000 </r>
       <r>    -0.9290     0.0000   141.0000 </r>
       <r>    -0.8908     0.0000   141.0000 </r>
       <r>    -0.8526     0.0000   141.0000 </r>
       <r>    -0.8144     0.0000   142.0000 </r>
       <r>    -0.7762     0.0000   142.0000 </r>
       <r>    -0.7380     0.0000   143.0000 </r>
       <r>    -0.6998     0.0000   144.0000 </r>
       <r>    -0.6616     0.0000   144.0000 </r>
       <r>    -0.6235     0.0000   144.0000 </r>
       <r>    -0.5853     0.0000   144.0000 </r>
       <r>    -0.5471     0.0000   144.0000 </r>
       <r>    -0.5089     0.0000   145.0000 </r>
       <r>    -0.4707     0.0000   146.0000 </r>
       <r>    -0.4325     0.0000   146.0000 </r>
       <r>    -0.3943     0.0000   146.0000 </r>
       <r>    -0.3561     0.0000   146.0000 </r>
       <r>    -0.3180     0.0000   147.0000 </r>
       <r>    -0.2798     0.0000   147.0000 </r>
       <r>    -0.2416     0.0000   148.0000 </r>
       <r>    -0.2034     0.0000   148.0000 </r>
       <r>    -0.1652     0.0000   149.0000 </r>
       <r>    -0.1270     0.0000   149.0000 </r>
       <r>    -0.0888     0.0000   149.0000 </r>
       <r>    -0.0507     0.0000   149.0000 </r>
       <r>    -0.0125     0.0000   150.0000 </r>
       <r>     0.0257     0.0000   150.0000 </r>
       <r>     0.0639     0.0000   150.0000 </r>
       <r>     0.1021     0.0000   150.0000 </r>
       <r>     0.1403     0.0000   150.0000 </r>
       <r>     0.1785     0.0000   150.0000 </r>
       <r>     0.2167     0.0000   150.0000 </r>
       <r>     0.2548     0.0000   151.0000 </r>
       <r>     0.2930     0.0000   151.0000 </r>
       <r>     0.3312     0.0000   151.0000 </r>
       <r>     0.3694     0.0000   151.0000 </r>
       <r>     0.4076     0.0000   151.0000 </r>
       <r>     0.4458     0.0000   152.0000 </r>
       <r>     0.4840     0.0000   153.0000 </r>
       <r>     0.5221     0.0000   153.0000 </r>
       <r>     0.5603     0.0000   153.0000 </r>
       <r>     0.5985     0.0000   153.0000 </r>
       <r>     0.6367     0.0000   153.0000 </r>
       <r>     0.6749     0.0000   155.0000 </r>
       <r>     0.7131     0.0000   156.0000 </r>
       <r>     0.7513    26.1871   157.0000 </r>
       <r>     0.7895     0.0000   158.0000 </r>
       <r>     0.8276     0.0000   159.0000 </r>
       <r>     0.8658     0.0000   161.0000 </r>
       <r>     0.9040     0.0000   162.0000 </r>
       <r>     0.9422     0.0000   162.0000 </r>
       <r>     0.9804     0.0000   163.0000 </r>
       <r>     1.0186     0.0000   164.0000 </r>
       <r>     1.0568     0.0000   164.0000 </r>
       <r>     1.0949     0.0000   164.0000 </r>
       <r>     1.1331     0.0000   164.0000 </r>
       <r>     1.1713     0.0000   164.0000 </r>
       <r>     1.2095     0.0000   164.0000 </r>
       <r>     1.2477     0.0000   164.0000 </r>
       <r>     1.2859     0.0000   164.0000 </r>
       <r>     1.3241     0.0000   164.0000 </r>
       <r>     1.3623     0.0000   164.0000 </r>
       <r>     1.4004     0.0000   164.0000 </r>
       <r>     1.4386     0.0000   164.0000 </r>
       <r>     1.4768     0.0000   164.0000 </r>
       <r>     1.5150     0.0000   164.0000 </r>
      </set>
     </set>
    </array>
   </total>
  </dos>
 </calculation>
 <structure name="finalpos" >
  <crystal>
   <varray name="basis" >
    <v>      20.67605111       0.00000000       0.00000000 </v>
    <v>       0.00000000      20.67605111       0.00000000 </v>
    <v>       0.00000000       0.00000000      20.67605111 </v>
   </varray>
   <i name="volume">   8838.99302660 </i>
   <varray name="rec_basis" >
    <v>       0.04836513       0.00000000       0.00000000 </v>
    <v>       0.00000000       0.04836513       0.00000000 </v>
    <v>       0.00000000       0.00000000       0.04836513 </v>
   </varray>
  </crystal>
  <varray name="positions" >
   <v>       0.49840607       0.45724204       0.65688878 </v>
   <v>       0.44212721       0.53943550       0.56404528 </v>
   <v>       0.47198161       0.66629464       0.57841575 </v>
   <v>       0.44702690       0.35153167       0.46443162 </v>
   <v>       0.48967472       0.43980296       0.37547870 </v>
   <v>       0.57280096       0.61564937       0.49736708 </v>
   <v>       0.69546792       0.55232189       0.65019340 </v>
   <v>       0.60100907       0.50441344       0.73186720 </v>
   <v>       0.47184508       0.56560276       0.41724366 </v>
   <v>       0.69494443       0.60976025       0.41891542 </v>
   <v>       0.60152871       0.51622998       0.39732561 </v>
   <v>       0.53861361       0.46234821       0.50307326 </v>
   <v>       0.47270063       0.69588087       0.44784703 </v>
   <v>       0.31130402       0.36497241       0.48397974 </v>
   <v>       0.52626695       0.35165527       0.57352817 </v>
   <v>       0.37529789       0.48166927       0.45978883 </v>
   <v>       0.62286757       0.43997944       0.61244036 </v>
   <v>       0.57256134       0.64846928       0.36998192 </v>
   <v>       0.36359724       0.38872847       0.36227798 </v>
   <v>       0.56448157       0.57078430       0.62070021 </v>
   <v>       0.40045195       0.40973488       0.57462572 </v>
   <v>       0.66687059       0.52464980       0.51961729 </v>
   <v>       0.36797219       0.62072864       0.49085704 </v>
  </varray>
 </structure>
</modeling>
