24
Energy = -73.31124823 eV
Al 10.993059591870116 10.884825297120832 8.293674736238877
Al 10.994486549751384 10.870241218804185 13.664878978872936
Al 12.39954949115537 8.99236844304297 9.560709940672107
Al 12.399526484149249 8.995342903435098 12.39101145229107
Al 13.255613365632222 11.610515751482819 9.580155034713188
Al 13.25953969143385 11.622525704410242 12.415939372563006
Al 11.004937629778551 13.277116437339696 9.507609012702712
Al 10.97255004158333 13.246186719367744 12.457788558884983
Al 8.746956994389535 11.596678277449078 9.561347238296095
Al 8.737684883875307 11.611763005285137 12.408378556066936
Al 9.620259386021063 8.994835103889914 9.522661441596995
Al 9.625169834039687 9.000848375691053 12.353051371555352
Al 11.014252942879182 10.9352559235139 10.97865238089909
Al 13.77906323000662 7.0546099054235665 10.997597555689499
Al 14.699782990973858 9.654782910254154 11.011756986350775
Al 15.551685690810178 12.265673757604686 11.035664052253217
Al 13.317300519634562 13.938100981258021 10.898616726266834
Al 10.880818723162502 15.533497312773186 11.00551471972451
Al 8.631205630567582 13.96741584550208 10.981288663874741
Al 6.456157948411732 12.28860830359212 11.004091938202254
Al 7.316655755009138 9.675729781434908 10.984750550530501
Al 8.26311628196321 7.1165933540914 10.914796534458112
Al 10.997680543339674 7.071029052622347 10.962525829954144
Al 12.646533799562103 15.359043634610709 13.07112636734208
