   9   9   0   0
  0.8670107E+03  0.1983455E-08  0.1983455E-08  0.1983455E-08  0.1000000E-15
  1.000000000000000E-004
  CAR 
 unknown system                          
      0.66396658     -9.47872526  301     -3.41001464      1.00000000
     -9.479  0.0000E+00  0.0000E+00  0.0000E+00  0.0000E+00
     -9.445  0.0000E+00  0.0000E+00  0.0000E+00  0.0000E+00
     -9.411  0.0000E+00  0.0000E+00  0.0000E+00  0.0000E+00
     -9.377  0.0000E+00  0.0000E+00  0.0000E+00  0.0000E+00
     -9.343  0.0000E+00  0.0000E+00  0.0000E+00  0.0000E+00
     -9.310  0.0000E+00  0.0000E+00  0.0000E+00  0.0000E+00
     -9.276  0.0000E+00  0.0000E+00  0.0000E+00  0.0000E+00
     -9.242  0.0000E+00  0.0000E+00  0.0000E+00  0.0000E+00
     -9.208  0.0000E+00  0.0000E+00  0.0000E+00  0.0000E+00
     -9.174  0.0000E+00  0.0000E+00  0.0000E+00  0.0000E+00
     -9.141  0.0000E+00  0.0000E+00  0.0000E+00  0.0000E+00
     -9.107  0.0000E+00  0.0000E+00  0.0000E+00  0.0000E+00
     -9.073  0.0000E+00  0.0000E+00  0.0000E+00  0.0000E+00
     -9.039  0.0000E+00  0.0000E+00  0.0000E+00  0.0000E+00
     -9.005  0.0000E+00  0.0000E+00  0.1000E-02  0.0000E+00
     -8.972  0.0000E+00  0.0000E+00  0.2000E-02  0.1000E-02
     -8.938  0.0000E+00  0.0000E+00  0.2000E-02  0.2000E-02
     -8.904  0.0000E+00  0.0000E+00  0.2000E-02  0.2000E-02
     -8.870  0.0000E+00  0.0000E+00  0.2000E-02  0.2000E-02
     -8.836  0.0000E+00  0.0000E+00  0.2000E-02  0.2000E-02
     -8.803  0.0000E+00  0.0000E+00  0.2000E-02  0.2000E-02
     -8.769  0.0000E+00  0.0000E+00  0.3000E-02  0.2000E-02
     -8.735  0.0000E+00  0.0000E+00  0.3000E-02  0.3000E-02
     -8.701  0.0000E+00  0.0000E+00  0.4000E-02  0.3000E-02
     -8.667  0.0000E+00  0.0000E+00  0.4000E-02  0.4000E-02
     -8.634  0.0000E+00  0.0000E+00  0.5000E-02  0.5000E-02
     -8.600  0.0000E+00  0.0000E+00  0.7000E-02  0.5000E-02
     -8.566  0.0000E+00  0.0000E+00  0.7000E-02  0.7000E-02
     -8.532  0.0000E+00  0.0000E+00  0.7000E-02  0.7000E-02
     -8.498  0.0000E+00  0.0000E+00  0.8000E-02  0.8000E-02
     -8.464  0.0000E+00  0.0000E+00  0.9000E-02  0.9000E-02
     -8.431  0.0000E+00  0.0000E+00  0.9000E-02  0.9000E-02
     -8.397  0.0000E+00  0.0000E+00  0.1000E-01  0.9000E-02
     -8.363  0.0000E+00  0.0000E+00  0.1100E-01  0.1000E-01
     -8.329  0.0000E+00  0.0000E+00  0.1100E-01  0.1100E-01
     -8.295  0.0000E+00  0.0000E+00  0.1100E-01  0.1100E-01
     -8.262  0.0000E+00  0.0000E+00  0.1300E-01  0.1100E-01
     -8.228  0.0000E+00  0.0000E+00  0.1300E-01  0.1300E-01
     -8.194  0.0000E+00  0.0000E+00  0.1300E-01  0.1300E-01
     -8.160  0.0000E+00  0.0000E+00  0.1300E-01  0.1300E-01
     -8.126  0.0000E+00  0.0000E+00  0.1300E-01  0.1300E-01
     -8.093  0.0000E+00  0.0000E+00  0.1400E-01  0.1400E-01
     -8.059  0.0000E+00  0.0000E+00  0.1500E-01  0.1400E-01
     -8.025  0.0000E+00  0.0000E+00  0.1500E-01  0.1500E-01
     -7.991  0.0000E+00  0.0000E+00  0.1500E-01  0.1500E-01
     -7.957  0.0000E+00  0.0000E+00  0.1700E-01  0.1500E-01
     -7.924  0.0000E+00  0.0000E+00  0.1700E-01  0.1700E-01
     -7.890  0.0000E+00  0.0000E+00  0.1800E-01  0.1700E-01
     -7.856  0.0000E+00  0.0000E+00  0.1800E-01  0.1800E-01
     -7.822  0.0000E+00  0.0000E+00  0.1800E-01  0.1800E-01
     -7.788  0.0000E+00  0.0000E+00  0.2000E-01  0.1900E-01
     -7.754  0.0000E+00  0.2958E-01  0.2000E-01  0.2000E-01
     -7.721  0.0000E+00  0.0000E+00  0.2000E-01  0.2000E-01
     -7.687  0.0000E+00  0.0000E+00  0.2000E-01  0.2000E-01
     -7.653  0.0000E+00  0.0000E+00  0.2100E-01  0.2100E-01
     -7.619  0.0000E+00  0.0000E+00  0.2100E-01  0.2100E-01
     -7.585  0.0000E+00  0.0000E+00  0.2100E-01  0.2100E-01
     -7.552  0.0000E+00  0.0000E+00  0.2200E-01  0.2100E-01
     -7.518  0.0000E+00  0.0000E+00  0.2300E-01  0.2200E-01
     -7.484  0.0000E+00  0.0000E+00  0.2300E-01  0.2300E-01
     -7.450  0.0000E+00  0.0000E+00  0.2400E-01  0.2300E-01
     -7.416  0.0000E+00  0.0000E+00  0.2500E-01  0.2400E-01
     -7.383  0.0000E+00  0.0000E+00  0.2500E-01  0.2500E-01
     -7.349  0.0000E+00  0.0000E+00  0.2600E-01  0.2500E-01
     -7.315  0.0000E+00  0.0000E+00  0.2600E-01  0.2600E-01
     -7.281  0.0000E+00  0.0000E+00  0.2700E-01  0.2600E-01
     -7.247  0.0000E+00  0.0000E+00  0.2900E-01  0.2800E-01
     -7.214  0.0000E+00  0.0000E+00  0.2900E-01  0.2900E-01
     -7.180  0.0000E+00  0.0000E+00  0.2900E-01  0.2900E-01
     -7.146  0.0000E+00  0.0000E+00  0.3100E-01  0.2900E-01
     -7.112  0.0000E+00  0.2958E-01  0.3200E-01  0.3200E-01
     -7.078  0.0000E+00  0.0000E+00  0.3200E-01  0.3200E-01
     -7.044  0.0000E+00  0.0000E+00  0.3300E-01  0.3200E-01
     -7.011  0.0000E+00  0.0000E+00  0.3500E-01  0.3400E-01
     -6.977  0.0000E+00  0.0000E+00  0.3500E-01  0.3500E-01
     -6.943  0.0000E+00  0.0000E+00  0.3600E-01  0.3500E-01
     -6.909  0.0000E+00  0.0000E+00  0.3600E-01  0.3600E-01
     -6.875  0.0000E+00  0.0000E+00  0.3600E-01  0.3600E-01
     -6.842  0.0000E+00  0.0000E+00  0.3700E-01  0.3600E-01
     -6.808  0.0000E+00  0.0000E+00  0.3900E-01  0.3800E-01
     -6.774  0.0000E+00  0.1407E-03  0.4100E-01  0.3900E-01
     -6.740  0.0000E+00  0.0000E+00  0.4200E-01  0.4100E-01
     -6.706  0.0000E+00  0.0000E+00  0.4300E-01  0.4200E-01
     -6.673  0.0000E+00  0.2958E-01  0.4400E-01  0.4400E-01
     -6.639  0.0000E+00  0.0000E+00  0.4400E-01  0.4400E-01
     -6.605  0.0000E+00  0.0000E+00  0.4400E-01  0.4400E-01
     -6.571  0.0000E+00  0.0000E+00  0.4500E-01  0.4400E-01
     -6.537  0.0000E+00  0.0000E+00  0.4500E-01  0.4500E-01
     -6.504  0.0000E+00  0.0000E+00  0.4600E-01  0.4600E-01
     -6.470  0.0000E+00  0.0000E+00  0.4600E-01  0.4600E-01
     -6.436  0.0000E+00  0.0000E+00  0.4600E-01  0.4600E-01
     -6.402  0.0000E+00  0.0000E+00  0.4600E-01  0.4600E-01
     -6.368  0.0000E+00  0.0000E+00  0.4600E-01  0.4600E-01
     -6.334  0.0000E+00  0.0000E+00  0.4600E-01  0.4600E-01
     -6.301  0.0000E+00  0.0000E+00  0.4600E-01  0.4600E-01
     -6.267  0.0000E+00  0.0000E+00  0.4600E-01  0.4600E-01
     -6.233  0.0000E+00  0.0000E+00  0.4600E-01  0.4600E-01
     -6.199  0.0000E+00  0.0000E+00  0.4600E-01  0.4600E-01
     -6.165  0.0000E+00  0.0000E+00  0.4600E-01  0.4600E-01
     -6.132  0.0000E+00  0.0000E+00  0.4600E-01  0.4600E-01
     -6.098  0.0000E+00  0.0000E+00  0.4600E-01  0.4600E-01
     -6.064  0.0000E+00  0.0000E+00  0.4600E-01  0.4600E-01
     -6.030  0.0000E+00  0.0000E+00  0.4600E-01  0.4600E-01
     -5.996  0.0000E+00  0.0000E+00  0.4600E-01  0.4600E-01
     -5.963  0.0000E+00  0.0000E+00  0.4600E-01  0.4600E-01
     -5.929  0.0000E+00  0.0000E+00  0.4600E-01  0.4600E-01
     -5.895  0.0000E+00  0.0000E+00  0.4600E-01  0.4600E-01
     -5.861  0.0000E+00  0.0000E+00  0.4600E-01  0.4600E-01
     -5.827  0.0000E+00  0.0000E+00  0.4600E-01  0.4600E-01
     -5.794  0.0000E+00  0.0000E+00  0.4600E-01  0.4600E-01
     -5.760  0.0000E+00  0.0000E+00  0.4600E-01  0.4600E-01
     -5.726  0.0000E+00  0.0000E+00  0.4600E-01  0.4600E-01
     -5.692  0.0000E+00  0.0000E+00  0.4600E-01  0.4600E-01
     -5.658  0.0000E+00  0.0000E+00  0.4600E-01  0.4600E-01
     -5.625  0.0000E+00  0.0000E+00  0.4600E-01  0.4600E-01
     -5.591  0.0000E+00  0.0000E+00  0.4600E-01  0.4600E-01
     -5.557  0.0000E+00  0.0000E+00  0.4600E-01  0.4600E-01
     -5.523  0.0000E+00  0.0000E+00  0.4700E-01  0.4600E-01
     -5.489  0.0000E+00  0.0000E+00  0.4700E-01  0.4600E-01
     -5.455  0.0000E+00  0.0000E+00  0.4700E-01  0.4600E-01
     -5.422  0.0000E+00  0.0000E+00  0.4700E-01  0.4700E-01
     -5.388  0.0000E+00  0.0000E+00  0.4700E-01  0.4700E-01
     -5.354  0.0000E+00  0.0000E+00  0.4700E-01  0.4700E-01
     -5.320  0.0000E+00  0.0000E+00  0.4700E-01  0.4700E-01
     -5.286  0.0000E+00  0.0000E+00  0.4700E-01  0.4700E-01
     -5.253  0.0000E+00  0.0000E+00  0.4700E-01  0.4700E-01
     -5.219  0.0000E+00  0.0000E+00  0.4700E-01  0.4700E-01
     -5.185  0.0000E+00  0.0000E+00  0.4700E-01  0.4700E-01
     -5.151  0.0000E+00  0.0000E+00  0.4800E-01  0.4700E-01
     -5.117  0.0000E+00  0.0000E+00  0.4800E-01  0.4700E-01
     -5.084  0.0000E+00  0.0000E+00  0.4800E-01  0.4800E-01
     -5.050  0.0000E+00  0.0000E+00  0.4800E-01  0.4800E-01
     -5.016  0.0000E+00  0.0000E+00  0.4800E-01  0.4800E-01
     -4.982  0.0000E+00  0.0000E+00  0.4800E-01  0.4800E-01
     -4.948  0.0000E+00  0.0000E+00  0.4800E-01  0.4800E-01
     -4.915  0.0000E+00  0.0000E+00  0.4800E-01  0.4800E-01
     -4.881  0.0000E+00  0.0000E+00  0.4800E-01  0.4800E-01
     -4.847  0.0000E+00  0.0000E+00  0.4800E-01  0.4800E-01
     -4.813  0.0000E+00  0.0000E+00  0.4800E-01  0.4800E-01
     -4.779  0.0000E+00  0.0000E+00  0.4800E-01  0.4800E-01
     -4.745  0.0000E+00  0.0000E+00  0.4800E-01  0.4800E-01
     -4.712  0.0000E+00  0.0000E+00  0.4900E-01  0.4800E-01
     -4.678  0.0000E+00  0.0000E+00  0.4900E-01  0.4900E-01
     -4.644  0.0000E+00  0.0000E+00  0.4900E-01  0.4900E-01
     -4.610  0.0000E+00  0.0000E+00  0.4900E-01  0.4900E-01
     -4.576  0.0000E+00  0.0000E+00  0.4900E-01  0.4900E-01
     -4.543  0.0000E+00  0.0000E+00  0.4900E-01  0.4900E-01
     -4.509  0.0000E+00  0.0000E+00  0.4900E-01  0.4900E-01
     -4.475  0.0000E+00  0.0000E+00  0.4900E-01  0.4900E-01
     -4.441  0.0000E+00  0.0000E+00  0.4900E-01  0.4900E-01
     -4.407  0.0000E+00  0.0000E+00  0.4900E-01  0.4900E-01
     -4.374  0.0000E+00  0.0000E+00  0.4900E-01  0.4900E-01
     -4.340  0.0000E+00  0.0000E+00  0.4900E-01  0.4900E-01
     -4.306  0.0000E+00  0.0000E+00  0.4900E-01  0.4900E-01
     -4.272  0.0000E+00  0.0000E+00  0.4900E-01  0.4900E-01
     -4.238  0.0000E+00  0.0000E+00  0.4900E-01  0.4900E-01
     -4.205  0.0000E+00  0.0000E+00  0.4900E-01  0.4900E-01
     -4.171  0.0000E+00  0.0000E+00  0.4900E-01  0.4900E-01
     -4.137  0.0000E+00  0.0000E+00  0.4900E-01  0.4900E-01
     -4.103  0.0000E+00  0.0000E+00  0.4900E-01  0.4900E-01
     -4.069  0.0000E+00  0.0000E+00  0.4900E-01  0.4900E-01
     -4.035  0.0000E+00  0.0000E+00  0.4900E-01  0.4900E-01
     -4.002  0.0000E+00  0.0000E+00  0.4900E-01  0.4900E-01
     -3.968  0.0000E+00  0.0000E+00  0.4900E-01  0.4900E-01
     -3.934  0.0000E+00  0.0000E+00  0.4900E-01  0.4900E-01
     -3.900  0.0000E+00  0.0000E+00  0.4900E-01  0.4900E-01
     -3.866  0.0000E+00  0.0000E+00  0.4900E-01  0.4900E-01
     -3.833  0.0000E+00  0.0000E+00  0.4900E-01  0.4900E-01
     -3.799  0.0000E+00  0.0000E+00  0.4900E-01  0.4900E-01
     -3.765  0.0000E+00  0.0000E+00  0.4900E-01  0.4900E-01
     -3.731  0.0000E+00  0.0000E+00  0.4900E-01  0.4900E-01
     -3.697  0.0000E+00  0.0000E+00  0.4900E-01  0.4900E-01
     -3.664  0.0000E+00  0.0000E+00  0.4900E-01  0.4900E-01
     -3.630  0.0000E+00  0.0000E+00  0.4900E-01  0.4900E-01
     -3.596  0.0000E+00  0.0000E+00  0.4900E-01  0.4900E-01
     -3.562  0.0000E+00  0.0000E+00  0.4900E-01  0.4900E-01
     -3.528  0.0000E+00  0.0000E+00  0.4900E-01  0.4900E-01
     -3.495  0.0000E+00  0.0000E+00  0.4900E-01  0.4900E-01
     -3.461  0.0000E+00  0.0000E+00  0.4900E-01  0.4900E-01
     -3.427  0.0000E+00  0.0000E+00  0.4900E-01  0.4900E-01
     -3.393  0.0000E+00  0.0000E+00  0.5000E-01  0.4900E-01
     -3.359  0.0000E+00  0.0000E+00  0.5000E-01  0.4900E-01
     -3.325  0.0000E+00  0.0000E+00  0.5000E-01  0.4900E-01
     -3.292  0.0000E+00  0.0000E+00  0.5000E-01  0.4900E-01
     -3.258  0.0000E+00  0.0000E+00  0.5000E-01  0.4900E-01
     -3.224  0.0000E+00  0.0000E+00  0.5000E-01  0.4900E-01
     -3.190  0.0000E+00  0.0000E+00  0.5000E-01  0.4900E-01
     -3.156  0.0000E+00  0.0000E+00  0.5000E-01  0.4900E-01
     -3.123  0.0000E+00  0.0000E+00  0.5000E-01  0.5000E-01
     -3.089  0.0000E+00  0.0000E+00  0.5000E-01  0.5000E-01
     -3.055  0.0000E+00  0.0000E+00  0.5000E-01  0.5000E-01
     -3.021  0.0000E+00  0.0000E+00  0.5000E-01  0.5000E-01
     -2.987  0.0000E+00  0.0000E+00  0.5000E-01  0.5000E-01
     -2.954  0.0000E+00  0.0000E+00  0.5100E-01  0.5000E-01
     -2.920  0.0000E+00  0.0000E+00  0.5100E-01  0.5000E-01
     -2.886  0.0000E+00  0.0000E+00  0.5100E-01  0.5100E-01
     -2.852  0.0000E+00  0.0000E+00  0.5100E-01  0.5100E-01
     -2.818  0.0000E+00  0.0000E+00  0.5100E-01  0.5100E-01
     -2.785  0.0000E+00  0.0000E+00  0.5100E-01  0.5100E-01
     -2.751  0.0000E+00  0.0000E+00  0.5100E-01  0.5100E-01
     -2.717  0.0000E+00  0.0000E+00  0.5100E-01  0.5100E-01
     -2.683  0.2958E-01  0.0000E+00  0.5200E-01  0.5100E-01
     -2.649  0.0000E+00  0.0000E+00  0.5200E-01  0.5100E-01
     -2.616  0.0000E+00  0.0000E+00  0.5300E-01  0.5100E-01
     -2.582  0.0000E+00  0.0000E+00  0.5300E-01  0.5200E-01
     -2.548  0.0000E+00  0.0000E+00  0.5400E-01  0.5200E-01
     -2.514  0.0000E+00  0.0000E+00  0.5400E-01  0.5300E-01
     -2.480  0.0000E+00  0.0000E+00  0.5400E-01  0.5400E-01
     -2.446  0.0000E+00  0.0000E+00  0.5400E-01  0.5400E-01
     -2.413  0.0000E+00  0.0000E+00  0.5400E-01  0.5400E-01
     -2.379  0.0000E+00  0.0000E+00  0.5400E-01  0.5400E-01
     -2.345  0.0000E+00  0.0000E+00  0.5400E-01  0.5400E-01
     -2.311  0.0000E+00  0.0000E+00  0.5400E-01  0.5400E-01
     -2.277  0.0000E+00  0.0000E+00  0.5400E-01  0.5400E-01
     -2.244  0.0000E+00  0.0000E+00  0.5400E-01  0.5400E-01
     -2.210  0.0000E+00  0.0000E+00  0.5400E-01  0.5400E-01
     -2.176  0.0000E+00  0.0000E+00  0.5400E-01  0.5400E-01
     -2.142  0.0000E+00  0.0000E+00  0.5400E-01  0.5400E-01
     -2.108  0.0000E+00  0.0000E+00  0.5400E-01  0.5400E-01
     -2.075  0.0000E+00  0.0000E+00  0.5400E-01  0.5400E-01
     -2.041  0.0000E+00  0.0000E+00  0.5400E-01  0.5400E-01
     -2.007  0.0000E+00  0.0000E+00  0.5400E-01  0.5400E-01
     -1.973  0.0000E+00  0.0000E+00  0.5400E-01  0.5400E-01
     -1.939  0.0000E+00  0.0000E+00  0.5400E-01  0.5400E-01
     -1.906  0.0000E+00  0.0000E+00  0.5400E-01  0.5400E-01
     -1.872  0.0000E+00  0.0000E+00  0.5400E-01  0.5400E-01
     -1.838  0.0000E+00  0.0000E+00  0.5400E-01  0.5400E-01
     -1.804  0.0000E+00  0.0000E+00  0.5500E-01  0.5400E-01
     -1.770  0.0000E+00  0.0000E+00  0.5500E-01  0.5400E-01
     -1.736  0.0000E+00  0.0000E+00  0.5500E-01  0.5500E-01
     -1.703  0.0000E+00  0.0000E+00  0.5500E-01  0.5500E-01
     -1.669  0.0000E+00  0.0000E+00  0.5500E-01  0.5500E-01
     -1.635  0.0000E+00  0.0000E+00  0.5500E-01  0.5500E-01
     -1.601  0.0000E+00  0.0000E+00  0.5500E-01  0.5500E-01
     -1.567  0.0000E+00  0.0000E+00  0.5500E-01  0.5500E-01
     -1.534  0.0000E+00  0.0000E+00  0.5500E-01  0.5500E-01
     -1.500  0.0000E+00  0.0000E+00  0.5500E-01  0.5500E-01
     -1.466  0.0000E+00  0.0000E+00  0.5500E-01  0.5500E-01
     -1.432  0.0000E+00  0.0000E+00  0.5500E-01  0.5500E-01
     -1.398  0.0000E+00  0.0000E+00  0.5500E-01  0.5500E-01
     -1.365  0.0000E+00  0.0000E+00  0.5500E-01  0.5500E-01
     -1.331  0.0000E+00  0.0000E+00  0.5500E-01  0.5500E-01
     -1.297  0.0000E+00  0.0000E+00  0.5500E-01  0.5500E-01
     -1.263  0.0000E+00  0.0000E+00  0.5500E-01  0.5500E-01
     -1.229  0.0000E+00  0.0000E+00  0.5500E-01  0.5500E-01
     -1.196  0.0000E+00  0.0000E+00  0.5600E-01  0.5500E-01
     -1.162  0.0000E+00  0.0000E+00  0.5600E-01  0.5500E-01
     -1.128  0.0000E+00  0.0000E+00  0.5600E-01  0.5500E-01
     -1.094  0.0000E+00  0.0000E+00  0.5600E-01  0.5500E-01
     -1.060  0.0000E+00  0.0000E+00  0.5600E-01  0.5500E-01
     -1.026  0.0000E+00  0.0000E+00  0.5600E-01  0.5500E-01
     -0.993  0.0000E+00  0.0000E+00  0.5600E-01  0.5500E-01
     -0.959  0.0000E+00  0.0000E+00  0.5600E-01  0.5500E-01
     -0.925  0.0000E+00  0.0000E+00  0.5600E-01  0.5600E-01
     -0.891  0.0000E+00  0.0000E+00  0.5600E-01  0.5600E-01
     -0.857  0.0000E+00  0.0000E+00  0.5700E-01  0.5600E-01
     -0.824  0.0000E+00  0.0000E+00  0.5700E-01  0.5600E-01
     -0.790  0.0000E+00  0.0000E+00  0.5700E-01  0.5600E-01
     -0.756  0.0000E+00  0.0000E+00  0.5700E-01  0.5600E-01
     -0.722  0.0000E+00  0.0000E+00  0.5700E-01  0.5700E-01
     -0.688  0.0000E+00  0.0000E+00  0.5800E-01  0.5700E-01
     -0.655  0.0000E+00  0.0000E+00  0.5800E-01  0.5700E-01
     -0.621  0.0000E+00  0.0000E+00  0.5900E-01  0.5800E-01
     -0.587  0.0000E+00  0.0000E+00  0.5900E-01  0.5800E-01
     -0.553  0.0000E+00  0.0000E+00  0.5900E-01  0.5800E-01
     -0.519  0.0000E+00  0.0000E+00  0.5900E-01  0.5800E-01
     -0.486  0.0000E+00  0.0000E+00  0.5900E-01  0.5800E-01
     -0.452  0.0000E+00  0.0000E+00  0.5900E-01  0.5800E-01
     -0.418  0.0000E+00  0.0000E+00  0.5900E-01  0.5900E-01
     -0.384  0.0000E+00  0.0000E+00  0.5900E-01  0.5900E-01
     -0.350  0.0000E+00  0.0000E+00  0.5900E-01  0.5900E-01
     -0.316  0.0000E+00  0.0000E+00  0.5900E-01  0.5900E-01
     -0.283  0.0000E+00  0.0000E+00  0.6000E-01  0.5900E-01
     -0.249  0.0000E+00  0.0000E+00  0.6000E-01  0.5900E-01
     -0.215  0.0000E+00  0.0000E+00  0.6100E-01  0.6000E-01
     -0.181  0.0000E+00  0.0000E+00  0.6100E-01  0.6000E-01
     -0.147  0.0000E+00  0.0000E+00  0.6100E-01  0.6100E-01
     -0.114  0.0000E+00  0.0000E+00  0.6100E-01  0.6100E-01
     -0.080  0.0000E+00  0.0000E+00  0.6100E-01  0.6100E-01
     -0.046  0.0000E+00  0.0000E+00  0.6200E-01  0.6100E-01
     -0.012  0.0000E+00  0.0000E+00  0.6200E-01  0.6100E-01
      0.022  0.0000E+00  0.0000E+00  0.6200E-01  0.6200E-01
      0.055  0.0000E+00  0.0000E+00  0.6200E-01  0.6200E-01
      0.089  0.0000E+00  0.0000E+00  0.6200E-01  0.6200E-01
      0.123  0.0000E+00  0.0000E+00  0.6300E-01  0.6200E-01
      0.157  0.0000E+00  0.0000E+00  0.6300E-01  0.6200E-01
      0.191  0.0000E+00  0.0000E+00  0.6400E-01  0.6300E-01
      0.224  0.0000E+00  0.0000E+00  0.6400E-01  0.6400E-01
      0.258  0.0000E+00  0.0000E+00  0.6400E-01  0.6400E-01
      0.292  0.0000E+00  0.0000E+00  0.6400E-01  0.6400E-01
      0.326  0.0000E+00  0.0000E+00  0.6400E-01  0.6400E-01
      0.360  0.0000E+00  0.0000E+00  0.6400E-01  0.6400E-01
      0.393  0.0000E+00  0.0000E+00  0.6400E-01  0.6400E-01
      0.427  0.0000E+00  0.0000E+00  0.6400E-01  0.6400E-01
      0.461  0.0000E+00  0.0000E+00  0.6400E-01  0.6400E-01
      0.495  0.0000E+00  0.0000E+00  0.6400E-01  0.6400E-01
      0.529  0.0000E+00  0.0000E+00  0.6400E-01  0.6400E-01
      0.563  0.0000E+00  0.0000E+00  0.6400E-01  0.6400E-01
      0.596  0.0000E+00  0.0000E+00  0.6400E-01  0.6400E-01
      0.630  0.0000E+00  0.0000E+00  0.6400E-01  0.6400E-01
      0.664  0.0000E+00  0.0000E+00  0.6400E-01  0.6400E-01
