12
Energy = -6.84356388 eV
K 14.656091916107844 17.236224261584432 10.590662493725231
K 16.246882405182316 18.977489258272424 14.141950389900698
K 11.92005659449665 14.075859321108394 11.049585925535785
K 19.246941204076517 16.107309774926872 14.134842058694215
K 15.669855461029552 13.856580288494337 13.355601159150412
K 12.665110224656718 16.828381722460477 14.832798480110736
K 16.17802430468583 15.592697804140498 17.193261047384144
K 8.945400630680671 14.279702577309363 14.449430377484973
K 12.566518402190939 11.104659499802656 13.986606159956992
K 12.22449855910461 13.72507675796182 17.500775102295638
K 19.382946247774303 12.557621356257066 16.115559561084567
K 15.592192813135044 11.263631214070905 17.059997481581156
