14
Energy = -10.13548937 eV
K 11.882823458916855 12.535752337640814 10.285162158787967
K 14.540110366455153 14.967318305391712 12.905481487413489
K 10.514423714758685 14.34920577951294 14.7225323990859
K 7.638880236527453 13.642996759840615 11.404496436655132
K 13.556618235057323 11.460765340308074 15.891644151891569
K 13.210630979154777 6.902933151336641 13.965460011834969
K 15.256377710565193 10.518380560294114 12.08015038798395
K 11.798282263840749 10.663760805114707 6.168619589103034
K 9.171547102858856 14.334352162926805 7.304217222158472
K 10.865779194846619 16.90532187980904 10.589360053628026
K 9.512907442631619 5.796325360226587 11.80104886593812
K 9.891105879141804 9.965417267769414 13.565135202632435
K 8.635406965641646 9.575512626906288 9.1377966554865
K 12.864171198224117 7.721022411543735 9.517960126021277
