15
Energy = -8.8782679 eV
K 13.948250284975629 17.2973008357964 11.331350537135748
K 16.6880844735612 18.838258093755364 14.693954159925722
K 12.099122826932344 19.583384936072374 15.048312803110367
K 10.162936708045713 15.792917906336095 13.533370843738838
K 16.535940347072554 14.681678036901372 8.70154404213024
K 13.877250607452035 15.427023706162581 15.776134284723828
K 14.679396755566557 19.22139106046688 18.655966763183653
K 17.66266897356456 10.932967318310508 10.92018980317707
K 14.676941118690424 15.709076165609547 0.8236548217897882
K 17.64118873618718 15.04469582178086 17.66584091951874
K 17.852966439113487 14.960987732943282 12.990352176286764
K 13.552630695333587 12.834427775054396 11.667695821628817
K 11.105837021538104 11.857732604810394 15.483281307413792
K 15.9744678422928 11.270144959285085 15.059209462544448
K 13.928776341846213 12.047254953674505 19.024093310593653
