19
Energy = -13.65259417 eV
K 14.29739502660931 10.3628964 14.198954603925909
K 14.29739502660931 10.3628964 6.526838196074091
K 10.363226796299543 10.3628964 8.298445374892522
K 9.131564135115308 6.571942018139704 10.3628964
K 11.577717745278061 6.622483421670195 6.527227388819779
K 11.577717745278061 14.103309378329808 14.19856541118022
K 10.363376730109866 10.3628964 16.686793103730555
K 13.589262349404281 12.7058724493476 10.3628964
K 10.363226796299543 10.3628964 12.42734742510748
K 11.577717745278061 6.622483421670195 14.19856541118022
K 13.589262349404281 8.0199203506524 10.3628964
K 6.375596656102799 10.3628964 10.3628964
K 9.131564135115308 14.153850781860296 10.3628964
K 7.179728471927195 8.052253385024033 14.198650600840914
K 7.179728471927195 12.67353941497597 14.198650600840914
K 11.577717745278061 14.103309378329808 6.527227388819779
K 10.363376730109866 10.3628964 4.03899969626945
K 7.179728471927195 12.67353941497597 6.52714219915909
K 7.179728471927195 8.052253385024033 6.52714219915909
