20
Energy = -15.7564805 eV
K 12.371442263749431 15.796667347604581 12.522844642186557
K 15.903797995762066 18.9096111112713 11.157698263795162
K 0.6979144582983827 17.78318277180882 13.71788411119901
K 13.36187400909967 11.30507640516613 12.134113638412966
K 12.535251819133816 1.1514533879146487 14.047879760081605
K 1.9315315932887553 13.28915488128905 13.619763901304553
K 16.744224465995867 14.386666095188529 12.197971143014117
K 17.373326367045934 10.326518908932917 14.388545206432843
K 16.7524352014509 2.543772639703051 14.787204689143604
K 15.527151412638439 17.105055111428406 15.428169003995118
K 18.209771358953034 13.92307078800502 17.00973295791142
K 3.2822218039332776 15.931351755678055 17.11397352189503
K 11.195265190692613 16.672506040275614 17.01726413890987
K 18.5766484952272 18.590220525270457 18.1904200828585
K 13.804086470728887 12.891100477205821 16.12618671025221
K 14.127719803833385 1.0960773880658266 18.52562648536063
K 11.045240985765444 12.935039544807951 0.7095943832481991
K 14.816554145139854 15.502300610260281 0.740635653749668
K 0.37543011932414133 15.211276358381701 2.1237719089358604
K 16.33007148749873 18.564226459251003 3.402679244873321
