22
Energy = -16.99348341 eV
K 14.018043193042603 14.49737653803669 16.362019932805644
K 12.922620754757803 10.445202343590314 18.318012478867946
K 0.3922580267871491 17.912650474474315 14.91938157150754
K 14.550615777079155 14.100782391293096 0.33390157282766086
K 10.363226974902176 14.144091988077856 19.022801259198456
K 17.313765827791695 16.723115778406413 18.274052469280303
K 12.636852314604957 17.945502258857033 19.086236988192645
K 14.838008038073308 19.326693471367424 15.523443938349653
K 1.0817588011312447 1.8589211258423475 13.771928669600195
K 0.752160343325861 17.557754876384895 19.515610384629525
K 17.50101168808386 15.277408697373886 13.73689745492452
K 2.7015612940827523 0.37695763739440397 17.531907237703834
K 0.3547520556104216 13.83173449812761 16.77635222377932
K 18.71519169151627 0.33048964537412473 17.18379011328069
K 10.998825565086081 16.920602079854277 14.621839270439452
K 13.368235993435936 13.778287724893678 11.833538664931414
K 17.96357357825821 20.20761885699961 12.595085506615682
K 14.840221372589271 10.378029734665528 14.134209959403501
K 19.35189704916945 13.570147348710918 0.38177175923044526
K 14.488822827762712 17.877489872483416 11.191575769135204
K 10.392009918939895 12.211375627230408 14.916372324516297
K 17.212080479612666 11.799371788697819 17.58962372244146
