22
Energy = -16.91853447 eV
K 14.473692241613834 15.63810381875253 20.88139334846269
K 20.08124591557917 17.98218777785427 17.99915880473228
K 14.055445952131763 15.263130481492274 13.149627956958387
K 16.82383468510673 11.765476047780007 14.358416732365109
K 14.52669073422615 19.269390213930794 2.1686984772682725
K 16.59866489228487 11.347369833667901 18.89343813284891
K 15.906938391811709 19.808588746337612 19.342399832281465
K 20.538293588667873 13.344019416570692 16.638737131445588
K 20.895114004535294 12.563652778955387 12.038564848170898
K 19.121025285382654 14.454439301061575 20.737722957543927
K 12.246003998945007 17.30878523115854 16.84078641063697
K 16.982830145035766 13.618912587073496 10.144659532319265
K 12.942591837970799 0.19659611734126828 16.781330076635314
K 16.494348204527284 15.616545443584233 17.040657486683234
K 12.97435463046009 12.828800581244627 16.929567791679958
K 11.519804557557087 19.459871106039305 20.649058738018894
K 19.113740415432822 16.298325277277826 13.55213030528185
K 20.516977800115935 16.215435495139012 9.333828502273866
K 12.596263741608754 19.4600807602463 12.87920134103637
K 18.730810924188393 18.43075608857579 0.7396353121485321
K 16.448069588710815 18.23096562647753 10.526821000532898
K 16.569438493325197 19.794483578225663 14.915048678165476
