24
Energy = -18.90991573 eV
K 18.93254248175123 11.277260695695006 9.408268144780457
K 14.469951274867594 11.14365259812688 10.925289844661329
K 15.223930634096542 18.872952114599013 11.11445454656684
K 17.209882817426116 14.75230338699691 11.688312340142813
K 12.552839718103762 15.239029092924598 11.625001424567294
K 21.51518027339976 13.33840110941743 12.596831098554485
K 8.35346403984089 16.288755860587795 13.553683606823379
K 19.266304894142266 18.369728251414177 13.678983455351716
K 11.629987532148881 19.25368377462673 14.08146137008292
K 18.36575298271503 10.474818952185096 13.769983943077065
K 10.7367720457702 11.865238498879501 13.85895129572512
K 15.92976248271574 21.25434780350569 14.94991694830018
K 13.349283454407107 19.22701187857723 18.494500201948068
K 14.82830342872777 12.58873480059392 15.182897182285444
K 15.253686691798938 16.866166155445047 15.177676549195384
K 21.834488886533354 11.118352414081922 16.59015931822343
K 11.464936020804853 15.333800188201318 16.564193252860935
K 17.400751208161942 11.095103077815514 18.528464212377223
K 18.934780430103515 14.574168354038369 16.270463544110726
K 8.690160781779575 18.52672756219099 17.746355715316785
K 18.11173308706578 18.7127282992737 18.15508047670233
K 15.548889190724047 15.18148672507569 19.579817653792873
K 12.638930030073551 11.852917673509765 18.911382639920443
K 11.147871269822504 16.18281638921899 20.93805689161405
