24
Energy = -18.60582551 eV
K 16.292302560326537 10.393496911066935 8.911317426188964
K 12.668814434620304 10.333388850659668 11.495852924487293
K 10.193524012325774 13.749203354271847 10.73196509391463
K 15.098863729958998 14.49617961223933 11.094690665715634
K 16.646692571917445 11.120623178522289 13.632550617390368
K 19.461619807960716 12.978109221140121 10.370781555584585
K 8.33976376517337 14.186810084148899 14.841275811474851
K 12.639929268678173 13.33299842093715 14.841909806266163
K 11.5450320070231 17.270010872460478 13.311573152577337
K 15.188754043041737 11.607704819370225 18.05794095505801
K 10.566831308889693 12.694136058506105 18.749758416380484
K 19.282131139932055 10.179881760950272 17.426022580060085
K 19.18276162771811 17.150056098695142 12.19910669478015
K 10.731869734096174 17.031304395228492 17.74774147874264
K 15.990319739226836 16.031360642342236 15.570800751618062
K 15.203450083358268 19.02786904747073 11.59734233906828
K 20.0064748697496 13.699545181711835 14.841016620312399
K 18.53900014404692 14.439682156650147 19.27212516537724
K 13.72005990158876 19.977851568132383 16.29926486159304
K 14.144959539821196 15.443534461783095 20.00169515557621
K 0.3827877592823638 17.651323532402294 16.69571282033749
K 17.053728265625093 18.916144012312927 19.266350928117774
K 17.79365983014856 0.724551669446256 14.838470138809894
K 12.943373666439584 19.66490364683528 0.7834540342984659
