28
Energy = -22.2417708 eV
K 19.50342354944987 18.523046143013328 19.87296768410476
K 11.428693743290696 13.93953994919249 20.62746327630661
K 8.658187152427635 16.08599720118069 17.33814862281349
K 20.481482465857386 9.46344637004017 13.337195590005475
K 11.142148158910585 18.454069491943656 20.582573428071214
K 15.88978159778749 9.876144413355265 14.636460550967506
K 18.72431220732609 16.822830607992703 12.649970777500013
K 18.932544896548013 20.281106427253963 15.667098224816833
K 10.867897688587528 20.13722069927387 16.187035295447185
K 11.49892667162533 12.263678880681278 16.182977755124917
K 19.740370546450883 13.854837901917799 19.74486573667703
K 15.104340160854054 20.123488411679077 18.5188390862166
K 19.120605639338155 12.966622834617146 15.299711789048992
K 17.741102742048188 12.344696606266286 10.914181691956339
K 19.465650048889707 15.61576200877239 8.52334549068842
K 15.434970947330477 12.339873141402068 18.508528701869846
K 12.972519006496844 16.297680760156457 17.197332439167287
K 22.025648488209153 13.726623839055948 11.957403450862067
K 14.890800252177732 14.080447616617638 13.791478191191016
K 7.459662624573251 18.802074032182198 13.735613407775757
K 11.194301170655361 20.013784505681656 11.459938865657033
K 17.208784772148473 16.385787352357262 16.934539651930873
K 10.92043456419666 15.948387980816536 13.143847482857502
K 19.128481212796167 9.522610106759284 18.00623219934302
K 14.825518794263218 16.56323133502479 10.115891070714035
K 21.717608769072168 16.46946570358999 16.206999513646554
K 14.765367170106341 19.015827827901933 13.925716616935507
K 15.374582640033307 16.29986553272543 21.151791089754354
