29
Energy = -22.97484788 eV
K 17.429114378811978 18.19682472087346 11.032845983016838
K 18.103016326400976 13.841635971882203 11.688115786836493
K 13.87938159649298 15.51968456826378 11.624266612454132
K 13.707791879808388 19.67190606362767 13.665155900244843
K 20.877650071559213 17.08638951739451 13.62958171846944
K 17.828254187786715 20.821966626412976 14.555375674535552
K 10.18464963444779 12.80280376192349 11.384022066777362
K 18.598437340194884 9.371570057814013 12.151620025200874
K 14.357159116912294 10.909536681598373 11.75820578960107
K 9.964126710472456 16.96658825034281 13.65429269361091
K 0.7120832155634346 12.500903566058248 13.22022993985362
K 10.20959926648326 20.92408849841704 15.973297398087206
K 16.472510328319032 16.32427931056362 15.497151779491501
K 0.8761151226151168 0.29315863035463996 15.205317571201398
K 12.254766746442765 13.265886555421798 15.168721241050687
K 14.375082002770775 1.8435154818168158 16.709755157965258
K 16.68619042947231 11.776137783207938 15.534335209738666
K 12.435001176823368 17.233168709048012 17.482123124364943
K 20.508034254499208 9.45052817393927 16.291752540553507
K 18.93862390407055 1.8883164516799047 18.25250217530426
K 20.479161390182096 13.996794318457555 17.014485739297786
K 20.272248189651098 18.629210440705712 17.86039538801767
K 15.973819487427312 19.725386002226987 18.92857694128085
K 14.080613420968376 13.286038855550187 19.196778689562727
K 11.790072809898783 20.878722774858996 20.1299949992186
K 17.722739102129093 15.64996009330108 20.133252225240835
K 18.15837509248229 11.044886760088408 19.77268943351562
K 13.605426092129672 17.096823871095715 0.710416462464395
K 15.573039746075459 13.282579601583645 2.094461130582114
