31
Energy = -25.3332882 eV
K 15.833105685799024 16.323828452996775 8.455153037701123
K 11.102795839383335 16.39402702213913 9.621374105334692
K 20.530201087533253 15.675375534698595 9.242023367359886
K 18.35806446932797 19.85645286882515 9.904876635006746
K 17.536886767030612 12.298399594111322 10.632224294655146
K 14.080812049737293 19.26811057680802 11.542294745158483
K 13.75424797515034 14.142465717674346 12.161412664063512
K 9.560293069925617 12.606922563785961 13.656289119172671
K 17.799197540145176 16.38012942023101 12.513921326714373
K 13.686068587488645 9.95749448337854 14.117195037227567
K 10.663528642948128 17.148892276364148 14.359909478810575
K 21.63747313044148 18.630213058126614 13.00509713445266
K 21.313464833543172 13.87503894022153 13.550033544632301
K 17.602075359454595 20.608663993269666 14.486362727646119
K 17.133217053505707 12.594426830755255 15.111634666038267
K 8.716060134437699 14.484345216105245 17.919134289939247
K 14.947640002168546 17.161699943801516 15.500292374163175
K 19.429202993762424 16.384593412535803 16.719580650330695
K 13.03750150849177 20.933435525216886 15.967187757581305
K 20.938297216662335 20.230654350506295 17.53754183541358
K 12.724434832446747 13.64912330888919 16.47077528217215
K 19.478090677695015 12.215950636372305 18.757330987412306
K 10.355571494365417 10.239476614292418 17.55223677098185
K 14.952924842178472 10.352723567121558 18.701926770653916
K 15.934955469750086 14.879003276070103 19.0536383834931
K 16.41309762466422 19.423748068097694 19.03918167767814
K 11.889005413359728 17.536632995599135 19.071383212398413
K 19.37022651072944 16.39700851832207 21.3193591842221
K 12.159006057603042 13.278362903022698 20.986847169602186
K 16.73361115869713 12.594008080900712 22.56316204070082
K 14.616054427547377 16.765904705734656 22.76773218525728
