32
Energy = -24.04245592 eV
K 13.937293107018956 15.330588690961362 8.173135669366909
K 18.514161924282877 16.159018189058006 9.263695520089936
K 16.63077222674403 11.591340897304317 9.117991150242307
K 15.123826004654465 18.814600138739507 10.988955079503999
K 19.459293926325007 20.238127336725725 11.294364433787146
K 12.070480035517374 11.79265561025115 10.719567488709764
K 11.250760883350516 16.11198460421965 11.933296084990639
K 15.390245967471614 14.34744058059997 11.985474567743847
K 22.307022434427964 16.76628310430463 12.2294136587182
K 19.729837453595835 12.826605170535988 12.326517316279466
K 18.31034467235263 16.956593700213716 13.64783538874523
K 15.888377344816524 10.13219449057101 13.40335485437645
K 16.549319042235798 20.837321851038528 15.213616332250123
K 8.635175060481982 12.620920877720339 14.09843950021448
K 14.093937184777554 17.212282016915594 14.975516199364316
K 12.727274746770798 12.87451290059459 15.163196610420776
K 21.076392709565543 14.824381191596869 16.46216327736402
K 21.14657609648362 19.385131144641413 15.89879008671633
K 10.117063405689482 16.36275916107131 16.438079988399526
K 17.00842188907799 13.394593666009474 15.957502046573335
K 17.50148846094768 17.28525953893172 17.883419774734314
K 12.936220970997617 19.687431097169238 18.269845713193412
K 16.947911700592854 20.721095572477456 20.1919474619462
K 13.940426306348566 15.263474454827243 18.899868321839744
K 14.705836839959156 10.775681172997151 18.616924942080363
K 20.946641125977255 17.789996723266043 20.264825996580953
K 10.438758630077889 12.399445383308981 18.906214334172404
K 17.275615673278832 16.525845192141986 22.43992405533118
K 10.170062933799853 16.43435880625521 20.895486505572674
K 13.543379677779395 18.517287114688198 22.39725418722788
K 18.34742573229457 13.269382508861435 19.998538510683677
K 13.848495040317902 13.320246320014158 22.513684150792542
