35
Energy = -28.66681669 eV
K 15.578644117437339 17.026691468576768 8.281086318598227
K 19.950822788475154 17.885503329524965 9.443141124774764
K 18.2501787232587 13.489088234187216 9.488760210691794
K 16.536817893721107 20.91047027594912 10.923178117097965
K 13.695501689233263 13.476848075073777 11.04355802928554
K 12.538675396917782 18.276113928682403 11.775756050894946
K 16.9202339580094 16.563651921761664 12.076946410935339
K 21.066434622840895 15.051294910791858 13.026856182977316
K 20.0171241035769 19.699781584583317 13.807053859500268
K 12.844302253912456 22.52056161396014 13.836218916774353
K 17.307269656257812 12.149999055658782 13.786233931317172
K 9.974285816397428 14.805858028751988 13.789360586554874
K 17.369197721033032 23.320644936807227 14.859031444807583
K 15.522812248440273 19.58546639775027 14.936972242333372
K 13.851750827115984 15.423861446617401 14.878262257903083
K 12.871977132035724 11.198588043676844 15.301052073780262
K 18.226481151004485 16.243459101118944 15.966461629191041
K 11.098894771791382 18.714588387886796 16.20212776610483
K 22.092711545751744 17.056322015752567 17.586226265672693
K 14.727492447897125 17.505889415407122 18.606933179304786
K 18.66141600063089 20.369705833696212 18.249756705083406
K 11.33168227438442 14.560262127237753 18.50577319887928
K 15.784498667561824 13.191745490868419 18.00488418398797
K 17.10203045726195 9.268481074779643 17.41828482885066
K 20.33110427786657 12.555868961790681 17.346367429698862
K 14.110568831934076 21.823801352803066 18.51548214089454
K 22.11664253789824 14.235770009124332 21.36233571017507
K 13.429511440977457 10.519819060902751 20.10642611576312
K 18.49065778957992 15.959833997328323 20.069000594255556
K 21.020100034480507 18.7895564048634 21.90248476078942
K 11.657998795229107 18.49106017094687 21.095209836588456
K 18.08306435212011 11.63270736110066 21.345294172203012
K 16.26293348044993 19.319209021358642 22.19120079046934
K 14.393338509212354 14.732922074605053 22.038475680588498
K 18.633222696869954 15.494953897640123 24.084186264838998
