38
Energy = -31.12761103 eV
K 11.976487869666094 17.774054575738585 9.79782835299883
K 16.655407340140854 17.365736407020464 9.95581828521604
K 14.855841118863578 21.380552889020514 10.094798243942348
K 18.30142797993988 13.100923523884683 11.441052585927592
K 18.6774054205711 23.77990187229813 11.059956452723563
K 20.93941557945456 16.789144295486185 12.403862252039339
K 13.57893850808053 14.147342468109946 11.732719798915978
K 18.187515364454082 20.343549188387048 13.388018885353597
K 22.737000278914678 12.468038742708282 12.84545738836708
K 15.213203622486917 9.746596572589274 12.169315302346988
K 12.990411956108423 19.463319795914444 13.60730332379752
K 16.722209563973806 16.486744097498093 14.041581779843257
K 9.768457525440368 16.093027382501518 13.668197211534226
K 15.318567899588798 23.441576667542414 13.911208836798266
K 19.315406830375657 9.730563600532463 14.5805920676449
K 23.745027766999847 15.563431311356045 16.013707504193924
K 19.932398040963392 13.939485308501016 15.662196301610681
K 15.917301113992753 12.433790259682267 15.312383931700442
K 11.553845244074198 11.572244695648203 15.47316187790701
K 20.055059194686994 18.286516497045366 16.93445058329253
K 12.830786798029763 22.636382865115934 17.271881068135606
K 15.37809035806245 19.219889282652456 17.202225917718025
K 16.939243827078876 15.282450841186616 18.413982450109998
K 13.041663480096505 15.568223386678808 16.2355404479227
K 15.123711797529857 8.615832669982437 16.614266445473213
K 9.782961169988813 14.27034848261119 18.790789443377665
K 10.564015581030327 18.807249338721686 17.623324757802276
K 20.952037168282285 14.77410079431732 20.028880320104232
K 17.78958372225225 22.481623642181827 17.702879849170643
K 18.369221321880346 11.114559842787429 19.014937051521628
K 13.363139594118481 16.90311386517972 20.457804416165583
K 22.7770626263184 11.310607999188607 17.459135689735636
K 17.950746056994596 18.465450380974197 21.18433725559303
K 16.74469307873896 14.172032966749613 22.527023354041418
K 14.32673524170611 21.09938626706644 21.200014693886786
K 13.77915003470981 12.24993207044938 19.442398498842795
K 11.96783408224043 14.21909316520987 23.192800467417033
K 14.777185463903956 17.802371609219712 24.44335652856671
