39
Energy = -32.46665368 eV
K 15.560258597832844 20.892740735046296 9.951833487062933
K 15.175110663409884 15.53854950410313 8.333226682120852
K 11.38623173510044 13.337498385578124 11.007080414006156
K 15.212793859503854 10.926846959914533 9.473930006349093
K 19.37701887912212 13.29197137816485 9.972030166304453
K 13.085623132571305 17.72501095564321 11.806875727906304
K 22.387593474369677 17.077051310699403 12.6517157129142
K 18.170697160543103 10.200067311656813 13.338055595198421
K 8.884393535917061 12.184132737420514 14.876050100024814
K 15.940501447957857 21.611611726560845 14.508423419431463
K 18.15158452826006 17.485483580371003 11.040309707655844
K 19.781211452315507 21.263714352743186 12.184421933716793
K 11.401087233407745 21.618705247784497 13.397376617378272
K 15.604036352178001 13.9614707280792 12.365763451143353
K 19.377404744767592 14.558271839263515 14.474742995460005
K 12.436040022563017 14.468549474334772 15.189920931814822
K 22.69353526117366 12.277876871310207 13.68453991182856
K 9.065707933836801 17.012706266189635 14.032665860945999
K 13.287186290321602 9.991603710169008 13.798210350127153
K 16.31989106738723 17.339277373776845 15.11833471783728
K 20.139154588118366 19.289407014921988 16.29464485267125
K 16.012432808512106 12.541983879408521 16.48956684686487
K 12.603697590577028 18.639601689107277 16.372923687327585
K 15.975211411270804 8.439196305408496 17.48196064712712
K 22.71875871428982 15.483331738985076 17.475857687716587
K 8.87212289412421 20.177871745676555 17.469934115160612
K 20.10071133690587 11.346183358880157 17.843556647363577
K 12.874603049836397 22.70260153071677 17.860286441028293
K 9.606762561871651 15.532424348016884 18.610654432376375
K 12.142834579399176 11.378917952231692 18.584061816250674
K 18.42518031089484 15.55109350393758 18.638831804684955
K 16.404158790496204 19.739838142128736 19.07271456728376
K 14.182397723892587 15.570218890557122 19.04460873570184
K 20.813476441470915 18.236715289234347 20.90186991658159
K 16.366065757753788 11.857454886531304 20.92942049902131
K 12.157101739794797 18.948087764403112 20.926369074103576
K 20.766791849016755 13.710348384771734 21.89794371736886
K 12.216916188926298 14.102771441810175 22.558321487704493
K 16.66823456475176 16.333331958905063 22.68548550887755
