4
Energy = -1.53539274 eV
K 14.066399698659717 14.730544444376585 12.865056019581614
K 14.188310973220394 14.369132022390954 8.4735342035504
K 15.894139347925355 13.431973024416385 19.787054263621464
K 14.43367094457848 16.011246652232405 16.745959736235605
