40
Energy = -32.99379323 eV
K 15.013627510429476 17.477716592360622 10.536467758666138
K 18.940762290845516 20.18872888328658 10.407797819488492
K 14.279294911632334 12.963623383618547 9.193947179133835
K 18.69184434710546 10.974236004438055 9.860541892777173
K 18.606005973441643 15.40218837559883 9.263703809218812
K 11.066299233377375 15.71986321261138 11.800836246197672
K 15.298875559548874 9.154894798267138 11.922360986439495
K 20.63986728425499 20.78104158504102 14.882658208994318
K 16.096549342250636 20.54135044628363 13.622297746716285
K 14.20221417906142 16.362588317835677 14.74749940301845
K 21.065556490236286 13.647020081856741 12.819703122662014
K 16.411160187891912 13.30514478171607 12.772090671849039
K 11.848086512879025 20.122005118151897 12.959338350050063
K 12.115590732286252 11.866286372697376 13.221802637716076
K 18.37164947369967 24.161160786938197 13.044459455047214
K 19.082624728489264 10.08039346449773 14.484992705083462
K 18.655384702541205 17.044540642677752 13.355829623338012
K 8.146759056586559 13.665647924422329 14.776993599252814
K 13.959401064949747 24.098230441548136 14.530540689198178
K 10.14622952898815 17.420696527867822 16.14500964743227
K 22.417645745898117 12.161947938201106 16.79398359984244
K 17.414680405300153 22.864175791323216 17.332214459465735
K 21.61468974626148 16.591515684451355 16.925109522941717
K 15.1344690398218 10.71126749837233 16.37597047473667
K 11.626148440731395 13.229997417815985 17.376177250935374
K 17.96561021104293 14.037573122137823 16.82522925467931
K 17.479259883479372 18.49107940944472 17.166995998715237
K 7.853427598421444 15.17245429042414 19.06665775925956
K 13.302797627822391 20.455496783994455 17.217641312238637
K 20.53624050009217 20.195342565124534 19.624912962366594
K 19.119058904279406 10.745694257897044 19.33906483420711
K 14.309726919973253 16.18000837229448 18.980316193251067
K 22.201670494349607 13.933343644002855 20.769466407738364
K 18.596131653791193 16.207442894969045 20.72325632433132
K 15.239773886352172 12.277834394659655 20.539334641141785
K 15.887628687319813 19.94137127491568 20.92078784395234
K 10.99446884112712 18.313088855913367 20.520959234262794
K 11.230054996827544 13.994423707928082 21.69149560863678
K 15.01493145337059 15.917807749354486 23.26051874663312
K 18.622987399209865 12.799962151027549 23.400221564351465
