41
Energy = -33.55407684 eV
K 13.360742927301356 22.98068153641252 15.563197081470227
K 11.913629888144769 15.256894878479374 12.4958028915527
K 12.804035124739967 11.218704979009585 11.037858746126506
K 14.951221070263617 18.790350285720827 12.669572606907028
K 10.825595511154178 19.474060435762976 14.115731765757756
K 16.2271074114926 14.595182823434008 10.939310609074791
K 19.244448372323824 18.0433492270736 11.70288643651308
K 17.681119668894613 22.07670036203444 14.121514682275759
K 22.197287110164005 21.165725346709586 13.029688763126003
K 16.991837834985457 1.3365093243094897 18.036881316885694
K 12.342897328499047 11.766179697501567 15.538596846996034
K 14.71013976729676 19.2278014243325 17.22637792264338
K 11.199553971648584 16.0355837439209 17.012673384632873
K 10.118453815358341 20.225592013202462 18.430756985937766
K 19.73635138278501 14.144978241797247 14.091626218422709
K 15.542468124690794 15.17512565348594 15.537739015807555
K 16.42168446949898 11.029272584998704 13.706193480822781
K 0.333920010563927 17.343752217520283 15.231071006148547
K 19.170378536695644 18.39940885430272 16.0804826253189
K 21.296236161359257 22.767315778349257 17.006274981415956
K 2.359236001772818 21.34395508472068 16.241107233578173
K 18.389148076654585 20.69663019214635 19.877830661810993
K 21.26412082594162 14.82212724012029 18.232488327007292
K 20.961507685776652 2.037883998984068 20.61015614358461
K 1.7633878303749422 22.776520508209714 20.572655361322862
K 22.47304965032506 19.102642035396478 19.435877186322646
K 13.78061765474303 22.056968274725048 20.563798252379147
K 17.67186582172068 11.930932447563462 18.006141455434307
K 17.307545938095235 16.25240972715156 19.81253074353484
K 17.275598239988874 0.744774547401309 -0.3492835692397818
K 12.994336245909345 17.555383159639756 21.182951704160715
K 3.8375939437763495 18.420875624138816 19.191998998348634
K 1.0478687093578782 15.190365267121189 21.45560714441152
K 21.27591695762196 21.69699823688138 0.20421203065030577
K 13.725430392048603 13.34167116088778 19.709164109137173
K 1.821244000110538 19.158190260004087 0.21401369070767157
K 16.3420220387392 19.37180469120966 0.5314447471028747
K 19.91543147814489 12.84719359066209 22.045000999525346
K 20.35355157503435 17.204668365235335 -0.04544264362177124
K 15.906813686228972 14.769569436611429 0.5656037177347595
K 16.19522508855283 10.476697591630572 22.0671556435882
