42
Energy = -34.68632109 eV
K 20.11993870099675 19.32617037733479 8.463704552977598
K 17.191732075322744 15.04527730526764 8.598902536969115
K 15.436926279373745 19.616599929293745 9.023156480214206
K 18.890009760980366 10.686321085563831 10.1892210065005
K 21.235319942206704 15.01650720190076 10.827298562179173
K 14.253654814359288 11.519496439926515 10.88748125007686
K 13.852683469653785 16.172178563294874 11.537162316478533
K 18.04427049874447 22.223097230411362 11.923257182297357
K 18.080506489519774 17.95797980417807 11.914047884433089
K 10.070976685764352 18.742192427786392 12.382475414914577
K 17.6508319159577 13.701019537286527 12.753582571651922
K 22.016490855014055 19.501107441889417 12.434589631652663
K 10.141773244799303 14.011661996641845 12.95813492777645
K 21.076433807510945 11.527568235886536 14.488813027306195
K 16.797451663160853 9.58284604516936 14.418477949588873
K 14.372951335684661 20.38230842475004 13.565073173745121
K 11.545215755698196 9.677395148149605 15.01528525989931
K 13.993834662431437 13.130407693095785 14.908606191035947
K 20.798783991607575 16.074494949525537 15.294212663373882
K 16.309227781305633 16.858002541215743 15.389412506753501
K 18.934322752289216 20.309153400320746 15.992103693847806
K 7.923502084780452 17.08900754075357 16.30466087737325
K 12.115140506946512 17.063139402217487 15.643146507451215
K 17.879683296926945 13.099116883058015 17.02508701711936
K 15.772228398546892 23.426845200582903 16.48651080567154
K 18.35478617752422 16.92673045991538 19.05261532738265
K 10.428694742666043 13.44782732045489 17.3911527837916
K 10.889479915277482 21.08046535286409 16.460095113855004
K 22.233442771364064 18.569653827326718 18.865665444230906
K 9.81416484838755 9.875788048823804 19.553004534413837
K 19.305547626064183 9.565444504705175 18.655108177153068
K 14.510627435975632 10.537299187104086 18.55925358647034
K 21.53690478787715 13.828148716909848 19.284017539113474
K 14.407335869562177 15.10957778201725 18.81682329948243
K 7.781334277538731 13.594868632748916 20.729872638222865
K 18.470475585860967 20.929120860308227 20.524798019787568
K 10.835270452194068 17.445629125066688 19.913324955354017
K 14.687831070456026 19.66597523605146 18.441130292252073
K 20.212044543949478 16.987637026553205 22.766059989177162
K 12.126938557058908 13.259412319620806 21.769211039269308
K 17.49282573787352 13.144712801890096 21.458364491406602
K 15.446805717231545 17.330214878582378 22.373499663793144
