46
Energy = -37.01918086 eV
K 13.68697921978064 19.35804002443586 16.840660981423028
K 15.633401210056705 10.949075401071704 18.83607392227086
K 18.126895799415234 15.016617556644514 19.25699903919856
K 22.290710622527783 14.554031671770007 17.403806739454968
K 11.367865574837028 12.129910265157248 19.15965666231408
K 18.261839825772086 11.555263380548658 11.378550451803697
K 20.736038379144166 18.803317954164218 18.156059667298784
K 23.73331522697693 21.90717864633598 19.636088547057714
K 23.97967800487918 18.50256519167137 15.461438496050958
K 24.624194705267698 17.692488195017347 20.056298695605008
K 21.400970590463622 15.143576856984586 21.809448615543566
K 13.436976215857786 13.249670128916543 9.078440336412436
K 21.010271035373425 15.268589695611798 13.261699269952427
K 21.633678383309242 22.80840125510646 15.898723449992362
K 8.790403968441488 17.82132247477751 14.499808667584817
K 12.883951621022645 16.77481262963674 13.486825154995245
K 9.649060831731429 15.037077472116152 10.946452464861633
K 9.984230423463279 13.487303242712951 15.030884890824293
K 10.553812030620719 10.711253738374925 11.501294098810003
K 21.09822055764526 19.732178590647347 22.630288182599294
K 12.693025162289999 19.58195381694337 21.42455928400715
K 17.282624810415562 21.803685304916968 16.14519214323359
K 16.989297546291528 21.686346882151888 23.373449897740883
K 10.49792820743082 16.7255490599347 18.5079708465854
K 12.504967602728824 9.589187388195272 15.517152775185611
K 18.050501255814687 13.030919557461052 15.499553445129337
K 21.594564111403717 10.879748509285983 14.620875511029052
K 14.181058755204504 15.173715349569337 21.272340012624003
K 20.159696800040475 19.651901857808856 13.108389193199985
K 14.618736509917069 23.022932724052104 19.50387408529711
K 14.56362770988953 8.957706309510176 11.040566865242722
K 18.554560608658228 23.789696029815648 12.550756413137444
K 17.744686386295214 12.416155770232413 22.61954707248798
K 16.847051272846066 19.189481296680626 19.904040211799508
K 15.78474906844574 20.180940362085412 12.238286940777956
K 14.273738172182622 12.610857613897704 13.198400288369013
K 11.642880567063655 21.11060303900487 13.34540762478722
K 10.171900506257845 21.287197210338114 17.801148793917616
K 17.354834130413533 17.31026248098119 15.473940588439056
K 17.742228695311645 17.00805653163717 23.59629416195984
K 14.114818736769077 14.62567196667369 16.99607645709647
K 17.246146302868183 8.894730106072258 15.013975423159994
K 12.976539033358167 17.901463684433345 9.49985973769859
K 16.82387226578975 15.941899417728129 11.317884596409858
K 19.413717802622113 23.04157457447001 19.959456537281476
K 20.09008764024627 10.885422671558045 18.94183664649201
