52
Energy = -44.12315772 eV
K 2.5736377233150924 22.43132471438824 19.3711946724169
K 21.260320824420468 10.613372772636003 23.120337260881357
K 0.2885405300406568 22.749135801802712 23.547820515854628
K 23.121314691501752 14.818410754921144 22.370759551335745
K 22.067354812307446 18.578019784875053 1.0411868986300756
K 0.3495433291290865 18.9165022310967 20.92008587864932
K 21.913253912458966 11.481741020177482 18.951643994825144
K 17.046162862216807 9.895281306982922 -0.7659453074381681
K 19.667486754055627 14.522170215484408 1.1636184338201014
K 17.465332535386054 18.544843511511544 0.9149797121105592
K 0.7491440762702023 2.1435524128851298 20.167968076388647
K 23.073790527509583 15.806286095102642 17.90877812810077
K 19.857386953903493 22.409437812166267 24.128070294857284
K 21.240557330628953 12.606721687976258 14.725715931937005
K 0.687009739966852 19.75225118535978 16.321773201737457
K 22.057121012687006 22.692647593036305 20.0861209600357
K 23.764222302052282 -0.04659003118920608 16.320812391073524
K 18.576894795777072 13.973093671280328 21.040535898865297
K 19.394724653663165 6.408305051481592 20.94445132585138
K 21.97361872347802 2.2833970164306248 23.412450686115708
K 20.120708487841636 18.356650190445162 21.287111305789125
K 15.23395155953562 14.40933813436779 -0.11343898704023954
K 20.583714948891814 19.77842233140167 17.095095340986802
K 22.02723826372371 21.59372831876055 12.988154766985364
K 16.734198805290262 11.847553130411415 14.59782444788499
K 17.476326871095235 10.12647200109279 18.89687986659121
K 20.798887032861572 2.5433684180463336 18.984745519608317
K 18.65132637887911 15.600683197117911 16.677175683425506
K 13.582151499536913 11.009414246431204 21.235753805034236
K 22.011145912493404 17.11981949196638 13.595492772649658
K 20.137431899192674 18.923067491968194 9.39507660964946
K 15.813780755911084 17.718637538120994 21.077952013994057
K 16.011288389216787 19.21576554652192 17.11627888984894
K 18.593641921869782 15.120500460610367 11.547442266927046
K 17.911468828407287 19.672115057838223 13.285033631771217
K 12.910147336949136 18.587188098870662 0.10767917797608019
K 17.466292295615094 22.45203998005301 20.105129365761602
K 18.99304007136379 23.79175322382404 15.96521013751455
K 15.206754999070393 22.374162330224973 23.884779885458883
K 14.806238580747134 14.051311858282904 18.195344285525106
K 14.822073400700889 15.938224325779048 13.76258612764871
K 17.48441759765758 2.180765876155418 22.647539732871977
K 18.24922109501666 17.429790671672144 5.297548154681397
K 16.38926917562626 3.0314080473794074 18.273727470281816
K 11.923453044243846 17.521148527522154 17.081107011097746
K 11.793654119942786 15.539001621785475 21.237558022272903
K 15.664607659559548 18.151480432415852 9.481656178168627
K 13.32444082880623 20.102225113056935 13.367457195856227
K 12.567623966619186 20.860698864805226 20.265843122042526
K 14.411159367480828 23.295476127317368 16.751027860299388
K 13.35201098458243 1.1696377838700247 20.884778220079685
K 14.824490770721857 6.074224477137121 21.603789499291903
