53
Energy = -44.38239905 eV
K 22.61388254305578 22.453080045875666 1.46850378997958
K 18.523905808558656 20.045095548687954 1.7496568688779879
K 22.62873295580684 18.018139120754945 1.6956821894420409
K 22.958300034835737 13.653392193929363 2.206738789901163
K 14.450837756143171 17.432446216004188 1.4813658501883957
K 18.913666314318892 0.17645141323438257 23.024905773651902
K 18.726813816876778 15.514879346966648 2.2125193727322108
K 15.223697605291346 21.495203442712434 22.600183206978507
K 23.342311438724426 0.721205253820192 21.1323512934835
K 21.12529911779557 20.090307353187647 21.509126083670974
K 21.48859770377016 15.214879945674115 21.875043069156213
K 19.371116826939407 1.69595399497867 19.105548561855798
K 19.733353797562874 11.48344500736513 -0.19435153802841815
K 17.419663268476814 17.415447115993896 21.9424598125668
K 11.351995053390631 19.490550478294924 22.20413163272529
K 15.262670502104248 2.2149917477048904 20.78152490196296
K 12.586144766417249 15.296271248376366 21.65227381560276
K 12.795712199129037 22.496861351432493 18.797905127535312
K 17.743543034822874 21.442341242002367 18.73830125698172
K 22.26082419658979 22.02921787402368 17.441015958324133
K 0.45051451337779913 17.81407107917107 18.358631703544585
K 15.547132707228739 12.949562922421949 0.20959102025759993
K 22.997514760746764 2.9756699505744524 17.076002835968232
K 14.457863078616395 18.328195939704074 18.91890473046722
K -0.5696922766782756 13.33571967029011 18.181805143959387
K 16.669771763064958 8.761802588782237 21.52992397399128
K 11.728575803677124 23.382721823383687 14.485501199132852
K 0.3607507148081474 0.3474030887162179 13.6828381925054
K 19.958138419165465 17.01937886455849 18.117185811464324
K 20.3127699711707 10.00132831423321 19.243756920208646
K 19.522458850758774 0.6951504430852986 14.775264355677963
K 0.7747815306956666 19.642453513466382 14.075234217947548
K 17.073720346009612 13.551403718022662 19.644121278850886
K 15.542720465474266 1.644463794483956 16.336700422117765
K 15.482565769257537 20.81092585248828 14.988463141086939
K 19.953127886818503 19.646049381853683 14.41919789263698
K 11.288650211847406 18.92098525184959 15.673733001719748
K 22.508894885838924 15.67434033928455 14.32082510500688
K 12.999161086422893 11.11735492678441 20.399844342478435
K 1.3162041542597396 21.49381485262759 10.029213802410775
K 16.691653516344058 16.473227667546734 15.602547266115733
K 12.98732890501624 14.3133606568759 17.04954682522074
K 17.932538656678233 5.733604598391626 18.191318850511568
K 19.398797236639297 12.637067273621016 15.614369649114783
K 12.612992607113238 20.761882070928817 11.173426580123207
K 20.707344108764882 22.557607229623923 10.931552608904498
K 15.934871309678442 0.2733772334599745 11.88600494896982
K 21.868760092901944 18.18317128321209 10.424655448682934
K 15.959024037986724 9.993736385121794 17.141839406287414
K 13.749860683382193 16.69228236213586 12.443524496160329
K 18.569826248842528 15.375995240445809 11.845056234801609
K 17.130039718263404 19.612099424998075 10.810243733143958
K 15.312439645345234 12.614783564958497 13.5193467036422
