54
Energy = -46.08998724 eV
K 20.927128740081343 17.559061364290837 18.703575424288772
K 16.94651747154376 21.34555607342347 12.91639904199918
K 20.566939427044264 19.374452333284584 14.475546957948547
K 12.897338845851287 22.749030741589007 11.884860624387121
K 17.531247673552446 17.12215638191464 21.343618077948456
K 13.800324953342937 20.95480717105141 16.29469608803569
K 20.901165516238827 14.855923731965039 15.457091504915104
K 19.044863674332003 13.34110208152885 19.64086837091826
K 22.086095716592034 16.024254268999965 11.37081607081142
K 13.714958306262627 18.962097714797792 20.561271627188923
K 17.44231093117234 12.3507552052809 15.624894152529507
K 13.676302294685291 18.210791738524833 12.875354829959857
K 20.831167495978928 11.760856670229268 12.203251422870304
K 14.411146377629507 14.83220135850163 23.51912655535734
K 10.713037652579011 19.003313006891602 9.880013139467973
K 15.271558409864367 19.40550227675005 8.853564779715533
K 16.439818382612717 11.812335961737347 11.075206301244016
K 11.928320907374367 17.029862631673243 16.752410740578238
K 21.978747610009187 10.54321369592287 16.71762910967539
K 21.650185522073407 10.770244616029993 21.68441166496145
K 18.219584636478412 15.592062082174637 8.297013443239402
K 9.530264935306745 20.160309354608966 14.167192396306476
K 19.799170119817855 23.898434302766614 15.211597606649176
K 17.569427597287373 16.062388289230473 12.38652081214741
K 19.70797069095023 19.67244823334117 9.915335519735445
K 24.710719114401847 13.30055287516286 14.141087365119535
K 13.627403579001125 15.210426730951388 9.59279483454045
K 9.656959548092606 15.619176808916812 12.940563913118586
K 13.553953431945812 13.652532695850947 14.085809567374545
K 22.419886049514982 21.697542447899522 18.25732899895813
K 17.831615512139308 20.949780280276517 18.265444865680124
K 11.025791711391086 24.223103581348983 15.981788384774347
K 18.603512071207007 8.68908671018811 18.9137654211703
K 18.262603770053623 24.964620451967537 19.42109752676389
K 14.209315628555393 9.892079608735962 17.519365322703308
K 18.26899277751318 8.414569976752201 14.437785356570043
K 10.266047401432658 12.922390859714621 17.13184835639455
K 24.594724356335554 17.527211945995173 15.962625738730601
K 9.885651171360669 20.564290776675335 18.876150585787325
K 16.6978801889164 17.076694738275027 16.565915897633648
K 14.472780129404514 14.12000973266184 19.039754340253836
K 7.642504430140791 16.77299370576283 17.084871182023672
K 15.531677373733514 25.041941098530078 15.600597109150243
K 24.77714733845023 18.297927144473746 20.525040530399973
K 16.16453882741929 10.714389847274033 21.857779936540602
K 20.968587237092326 20.19744414568856 22.358001452642135
K 11.776098883215047 11.47450917340211 21.282335289780452
K 13.724492180651646 23.59562956168511 19.77185922281886
K 23.970995477476 13.997704267843842 18.962121842134582
K 18.609322765390527 17.79382887050905 25.429333454617126
K 10.341917301401944 15.943051844744854 20.821081131116728
K 16.753159687324683 21.62712962748337 22.73331325967196
K 18.63766297173767 13.330311851822858 24.37386228130921
K 22.021661531469988 15.589103688328168 22.847606904771737
