55
Energy = -46.78020093 eV
K 18.299104449305418 12.669762643860677 10.254544113563941
K 12.684572637998578 18.092904793320916 7.848229886812234
K 16.69757063166332 9.325394479928336 7.554194008733101
K 8.223482438134626 17.57280502270282 8.612048965710516
K 6.3382675830747575 13.84549456052046 11.016534154132504
K 13.062664109255438 1.1035351731206777 12.666846878354933
K 11.178649079943593 7.952523290980034 18.65571222365492
K 14.557175090363957 13.626924574024743 7.652799644499286
K 20.123201321027587 8.223805733566778 10.867651211360853
K 13.235760210763619 10.808929309227947 4.139482946583594
K 8.233197666577956 17.507427068103002 13.266838398405678
K 5.2064241509989735 10.070269357498418 8.320830273814167
K 16.017188759132235 19.777535010002083 14.03292506141482
K 6.378446731115642 10.093498234748107 3.844267789563097
K 9.430327200850815 11.516753153612756 0.6827742530961011
K 12.655619479163299 17.314983472942593 12.286607944850783
K 18.354869904723547 5.535453336292426 14.221040062376916
K 23.887777440840654 8.03744613645038 14.181462006724363
K 14.53318025615463 13.35509422987095 12.740632819905112
K 15.526549228935734 5.949043474441026 10.616148819237278
K 21.07413236949784 11.624542136315942 13.802618313944649
K 14.242289154185746 16.260898905620788 16.419249518812066
K 3.78614362063186 10.416129263169685 12.705360271986601
K 20.144796437360306 8.644297574270936 16.816651601273794
K 10.737334396589214 14.75800821083607 5.016073261003614
K 8.399201109693577 11.616616479143179 19.769423953086303
K 5.980996856267121 13.983798154942102 15.663944163083809
K 10.493474172563495 21.106462097247288 11.18002810864918
K 12.16792516109801 9.163289098093617 14.374660208837781
K 8.768905244828272 10.027963657100113 11.182540342875848
K 14.879910195675407 21.503306298435575 10.137002715225837
K 7.634778298431977 9.784341521160213 15.428534486401379
K 3.363396511617527 10.423643999606192 17.14102767434425
K 6.447599516966517 13.894147400988338 6.364792580316847
K 9.73875762189569 16.063773038782536 17.564638711238242
K 16.630131977423634 17.189412854331056 10.081140144057533
K 12.671664263305507 12.17138583641049 17.8730464541439
K 8.973967709030402 5.571094335447281 15.28815796466812
K 13.774337749477425 5.03951212984322 14.902426954005964
K 8.215465167565485 6.720981531847342 7.258345092191261
K 9.738703671169105 10.767273251067047 6.744111211060141
K 10.074950199038863 7.659958314086766 3.0215267587620556
K 10.994096011911193 5.7658732315285315 11.157472728586397
K 10.66174002307842 14.118590427692215 9.70266298349808
K 18.28540496079721 15.665829835450777 13.841047446638974
K 4.181919864109474 6.355396174149019 15.33691082344879
K 17.230573449854806 12.374583633872685 16.758884301013165
K 6.7115833985154305 7.461677163250917 19.048845079855536
K 13.095100433127328 9.968886519994347 10.06326893253163
K 6.304252936986649 6.450012057098499 11.524322392368719
K 15.664450725958151 8.226328629511674 17.543203905014547
K 12.726891794329365 6.879788969232865 6.748539679288364
K 16.661611655335246 9.514682992646827 13.306871339609764
K 10.262018845001762 13.415461995352821 14.130120739848017
K 11.610053626657631 20.095871726258448 15.593565195534694
