8
Energy = -5.57415656 eV
K 12.421361333584438 13.543880555207389 9.359637390322353
K 11.888697224172635 9.231632618913483 10.614089578227192
K 9.841305631505616 15.407799382783343 12.420248033853715
K 15.796134234434412 11.297703795845916 10.848527308582309
K 8.388303177401902 11.691110244113153 10.122419502986682
K 13.736460674907386 13.956398791828558 13.752424623259664
K 13.88953726170556 9.542820657582242 14.63006185774228
K 10.038763574097754 11.329217065535602 14.25315481683523
