 vasp.5.3.5 31Mar14 (build Feb 01 2018 12:10:03) gamma-only                     
  
 executed on             LinuxIFC date 2019.04.09  01:51:25
 running on   32 total cores
 distrk:  each k-point on   32 cores,    1 groups
 distr:  one band on NCORES_PER_BAND=   8 cores,    4 groups


--------------------------------------------------------------------------------------------------------


 INCAR:
 POTCAR:    PAW_PBE Pd 04Jan2005                  
 POTCAR:    PAW_PBE Pd 04Jan2005                  
   VRHFIN =Pd : s1 d9                                                           
   LEXCH  = PE                                                                  
   EATOM  =   809.7530 eV,   59.5152 Ry                                         
                                                                                
   TITEL  = PAW_PBE Pd 04Jan2005                                                
   LULTRA =        F    use ultrasoft PP ?                                      
   IUNSCR =        1    unscreen: 0-lin 1-nonlin 2-no                           
   RPACOR =    2.000    partial core radius                                     
   POMASS =  106.420; ZVAL   =   10.000    mass and valenz                      
   RCORE  =    2.600    outmost cutoff radius                                   
   RWIGS  =    2.710; RWIGS  =    1.434    wigner-seitz radius (au A)           
   ENMAX  =  250.925; ENMIN  =  188.194 eV                                      
   ICORE  =        3    local potential                                         
   LCOR   =        T    correct aug charges                                     
   LPAW   =        T    paw PP                                                  
   EAUG   =  416.230                                                            
   DEXC   =    0.000                                                            
   RMAX   =    2.653    core radius for proj-oper                               
   RAUG   =    1.300    factor for augmentation sphere                          
   RDEP   =    2.734    radius for radial grids                                 
   RDEPT  =    2.103    core radius for aug-charge                              
                                                                                
   Atomic configuration                                                         
   12 entries                                                                   
     n  l   j            E        occ.                                          
     1  0  0.50    -24164.6631   2.0000                                         
     2  0  0.50     -3530.9218   2.0000                                         
     2  1  1.50     -3165.6822   6.0000                                         
     3  0  0.50      -639.4577   2.0000                                         
     3  1  1.50      -519.4532   6.0000                                         
     3  2  2.50      -328.9757  10.0000                                         
     4  0  0.50       -88.7014   2.0000                                         
     4  1  1.50       -54.4540   6.0000                                         
     4  2  2.50        -6.6878   9.0000                                         
     5  0  0.50        -4.3543   1.0000                                         
     5  1  0.50        -1.3606   0.0000                                         
     4  3  2.50        -1.3606   0.0000                                         
   Description                                                                  
     l       E           TYP  RCUT    TYP  RCUT                                 
     2     -6.6878251     23  2.400                                             
     2     -8.0484077     23  2.400                                             
     0     -4.3542939     23  2.400                                             
     0      4.3406793     23  2.400                                             
     1     -4.0817478     23  2.600                                             
     1     15.8380318     23  2.600                                             
     3     -4.0817478     23  2.400                                             
  local pseudopotential read in
  partial core-charges read in
  partial kinetic energy density read in
  atomic valenz-charges read in
  non local Contribution for L=           2  read in
    real space projection operators read in
  non local Contribution for L=           2  read in
    real space projection operators read in
  non local Contribution for L=           0  read in
    real space projection operators read in
  non local Contribution for L=           0  read in
    real space projection operators read in
  non local Contribution for L=           1  read in
    real space projection operators read in
  non local Contribution for L=           1  read in
    real space projection operators read in
    PAW grid and wavefunctions read in
 
   number of l-projection  operators is LMAX  =           6
   number of lm-projection operators is LMMAX =          18
 
  PAW_PBE Pd 04Jan2005                  :
 energy of atom  1       EATOM= -809.7530
 kinetic energy error for atom=    0.0653 (will be added to EATOM!!)
 
 
 POSCAR: Pd11, -1408.360111 <s> Pd </s>          
  positions in direct lattice
  No initial velocities read in
 exchange correlation table for  LEXCH =        8
   RHO(1)=    0.500       N(1)  =     2000
   RHO(2)=  100.500       N(2)  =     4000
 


--------------------------------------------------------------------------------------------------------


 ion  position               nearest neighbor table
   1  0.595  0.603  0.587-   8 2.65   3 2.66   9 2.69   4 2.70
   2  0.412  0.526  0.463-  11 2.61  10 2.66   3 2.72   9 2.73   7 2.75   6 2.80   8 2.94
   3  0.525  0.616  0.466-   1 2.66   4 2.70   9 2.71   2 2.72   7 2.72   8 2.98
   4  0.645  0.539  0.470-   7 2.67   1 2.70   3 2.70   5 2.72   8 2.79
   5  0.608  0.400  0.468-   7 2.60   8 2.60   6 2.69   4 2.72
   6  0.466  0.389  0.465-  11 2.60   7 2.69   5 2.69   8 2.73   2 2.80  10 2.80
   7  0.535  0.491  0.395-   5 2.60   4 2.67   6 2.69   3 2.72   2 2.75   8 2.93
   8  0.534  0.483  0.550-   9 2.58   5 2.60   1 2.65  10 2.72   6 2.73   4 2.79   7 2.93   2 2.94
                             3 2.98
   9  0.454  0.587  0.587-   8 2.58   1 2.69   3 2.71   2 2.73  10 2.80
  10  0.397  0.450  0.581-  11 2.59   2 2.66   8 2.72   9 2.80   6 2.80
  11  0.331  0.415  0.466-  10 2.59   6 2.60   2 2.61
 
  LATTYP: Found a simple cubic cell.
 ALAT       =    18.9406401000
  
  Lattice vectors:
  
 A1 = (  18.9406401000,   0.0000000000,   0.0000000000)
 A2 = (   0.0000000000,  18.9406401000,   0.0000000000)
 A3 = (   0.0000000000,   0.0000000000,  18.9406401000)


Analysis of symmetry for initial positions (statically):
=====================================================================
 Subroutine PRICEL returns:
 Original cell was already a primitive cell.
 

 Routine SETGRP: Setting up the symmetry group for a 
 simple cubic supercell.


 Subroutine GETGRP returns: Found  1 space group operations
 (whereof  1 operations were pure point group operations)
 out of a pool of 48 trial point group operations.


The static configuration has the point symmetry C_1 .


Analysis of symmetry for dynamics (positions and initial velocities):
=====================================================================
 Subroutine PRICEL returns:
 Original cell was already a primitive cell.
 

 Routine SETGRP: Setting up the symmetry group for a 
 simple cubic supercell.


 Subroutine GETGRP returns: Found  1 space group operations
 (whereof  1 operations were pure point group operations)
 out of a pool of 48 trial point group operations.


The dynamic configuration has the point symmetry C_1 .


Analysis of magnetic symmetry:
=====================================================================
 Subroutine PRICEL returns:
 Original cell was already a primitive cell.
 

 Subroutine MAGSYM returns: Found  1 space group operations
 (whereof  1 operations were pure point group operations)
 out of a pool of  1 trial space group operations
 (whereof  1 operations were pure point group operations)
 and found also     1 'primitive' translations


The magnetic configuration has the point symmetry C_1 .
 
 
 KPOINTS: Gamma-point only                        
  k-points in reciprocal lattice
Space group operators:
 irot       det(A)        alpha          n_x          n_y          n_z        tau_x        tau_y        tau_z
    1     1.000000     0.000000     1.000000     0.000000     0.000000     0.000000     0.000000     0.000000


--------------------------------------------------------------------------------------------------------




 Dimension of arrays:
   k-points           NKPTS =      1   k-points in BZ     NKDIM =      1   number of bands    NBANDS=     72
   number of dos      NEDOS =    301   number of ions     NIONS =     11
   non local maximal  LDIM  =      6   non local SUM 2l+1 LMDIM =     18
   total plane-waves  NPLWV = 512000
   max r-space proj   IRMAX =      1   max aug-charges    IRDMAX=   3854
   dimension x,y,z NGX =    80 NGY =   80 NGZ =   80
   dimension x,y,z NGXF=   160 NGYF=  160 NGZF=  160
   support grid    NGXF=   160 NGYF=  160 NGZF=  160
   ions per type =              11
 NGX,Y,Z   is equivalent  to a cutoff of   7.02,  7.02,  7.02 a.u.
 NGXF,Y,Z  is equivalent  to a cutoff of  14.04, 14.04, 14.04 a.u.


 I would recommend the setting:
   dimension x,y,z NGX =    73 NGY =   73 NGZ =   73
 SYSTEM =  unknown system                          
 POSCAR =  Pd11, -1408.360111 <s> Pd </s>          

 Startparameter for this run:
   NWRITE =      2    write-flag & timer
   PREC   = normal    normal or accurate (medium, high low for compatibility)
   ISTART =      0    job   : 0-new  1-cont  2-samecut
   ICHARG =      2    charge: 1-file 2-atom 10-const
   ISPIN  =      2    spin polarized calculation?
   LNONCOLLINEAR =      F non collinear calculations
   LSORBIT =      F    spin-orbit coupling
   INIWAV =      1    electr: 0-lowe 1-rand  2-diag
   LASPH  =      F    aspherical Exc in radial PAW
   METAGGA=      F    non-selfconsistent MetaGGA calc.

 Electronic Relaxation 1
   ENCUT  =  250.9 eV  18.44 Ry    4.29 a.u.  24.46 24.46 24.46*2*pi/ulx,y,z
   ENINI  =  250.9     initial cutoff
   ENAUG  =  416.2 eV  augmentation charge cutoff
   NELM   =     60;   NELMIN=  2; NELMDL= -5     # of ELM steps 
   EDIFF  = 0.1E-03   stopping-criterion for ELM
   LREAL  =      F    real-space projection
   NLSPLINE    = F    spline interpolate recip. space projectors
   LCOMPAT=      F    compatible to vasp.4.4
   GGA_COMPAT  = T    GGA compatible to vasp.4.4-vasp.4.6
   LMAXPAW     = -100 max onsite density
   LMAXMIX     =    2 max onsite mixed and CHGCAR
   VOSKOWN=      0    Vosko Wilk Nusair interpolation
   ROPT   =    0.00000
 Ionic relaxation
   EDIFFG = 0.1E-02   stopping-criterion for IOM
   NSW    =   1000    number of steps for IOM
   NBLOCK =      1;   KBLOCK =   1000    inner block; outer block 
   IBRION =      2    ionic relax: 0-MD 1-quasi-New 2-CG
   NFREE  =      1    steps in history (QN), initial steepest desc. (CG)
   ISIF   =      2    stress and relaxation
   IWAVPR =     11    prediction:  0-non 1-charg 2-wave 3-comb
   ISYM   =      2    0-nonsym 1-usesym 2-fastsym
   LCORR  =      T    Harris-Foulkes like correction to forces

   POTIM  = 0.1000    time-step for ionic-motion
   TEIN   =    0.0    initial temperature
   TEBEG  =    0.0;   TEEND  =   0.0 temperature during run
   SMASS  =  -3.00    Nose mass-parameter (am)
   estimated Nose-frequenzy (Omega)   =  0.10E-29 period in steps =****** mass=  -0.820E-26a.u.
   SCALEE = 1.0000    scale energy and forces
   NPACO  =    256;   APACO  = 16.0  distance and # of slots for P.C.
   PSTRESS=    0.0 pullay stress

  Mass of Ions in am
   POMASS = 106.42
  Ionic Valenz
   ZVAL   =  10.00
  Atomic Wigner-Seitz radii
   RWIGS  =  -1.00
  virtual crystal weights 
   VCA    =   1.00
   NELECT =     110.0000    total number of electrons
   NUPDOWN=      -1.0000    fix difference up-down

 DOS related values:
   EMIN   =  10.00;   EMAX   =-10.00  energy-range for DOS
   EFERMI =   0.00
   ISMEAR =     0;   SIGMA  =   0.00  broadening in eV -4-tet -1-fermi 0-gaus

 Electronic relaxation 2 (details)
   IALGO  =     38    algorithm
   LDIAG  =      T    sub-space diagonalisation (order eigenvalues)
   LSUBROT=      F    optimize rotation matrix (better conditioning)
   TURBO    =      0    0=normal 1=particle mesh
   IRESTART =      0    0=no restart 2=restart with 2 vectors
   NREBOOT  =      0    no. of reboots
   NMIN     =      0    reboot dimension
   EREF     =   0.00    reference energy to select bands
   IMIX   =      4    mixing-type and parameters
     AMIX     =   0.40;   BMIX     =  1.00
     AMIX_MAG =   1.60;   BMIX_MAG =  1.00
     AMIN     =   0.10
     WC   =   100.;   INIMIX=   1;  MIXPRE=   1;  MAXMIX= -45

 Intra band minimization:
   WEIMIN = 0.0010     energy-eigenvalue tresh-hold
   EBREAK =  0.35E-06  absolut break condition
   DEPER  =   0.30     relativ break condition  

   TIME   =   0.40     timestep for ELM

  volume/ion in A,a.u.               =     617.72      4168.58
  Fermi-wavevector in a.u.,A,eV,Ry     =   0.414137  0.782606  2.333532  0.171510
  Thomas-Fermi vector in A             =   1.372227
 
 Write flags
   LWAVE  =      F    write WAVECAR
   LCHARG =      F    write CHGCAR
   LVTOT  =      F    write LOCPOT, total local potential
   LVHAR  =      F    write LOCPOT, Hartree potential only
   LELF   =      F    write electronic localiz. function (ELF)
   LORBIT =      0    0 simple, 1 ext, 2 COOP (PROOUT)


 Dipole corrections
   LMONO  =      F    monopole corrections only (constant potential shift)
   LDIPOL =      F    correct potential (dipole corrections)
   IDIPOL =      0    1-x, 2-y, 3-z, 4-all directions 
   EPSILON=  1.0000000 bulk dielectric constant

 Exchange correlation treatment:
   GGA     =    PE    GGA type
   LEXCH   =     8    internal setting for exchange type
   VOSKOWN=      0    Vosko Wilk Nusair interpolation
   LHFCALC =     F    Hartree Fock is set to
   LHFONE  =     F    Hartree Fock one center treatment
   AEXX    =    0.0000 exact exchange contribution

 Linear response parameters
   LEPSILON=     F    determine dielectric tensor
   LRPA    =     F    only Hartree local field effects (RPA)
   LNABLA  =     F    use nabla operator in PAW spheres
   LVEL    =     F    velocity operator in full k-point grid
   LINTERFAST=   F  fast interpolation
   KINTER  =     0    interpolate to denser k-point grid
   CSHIFT  =0.1000    complex shift for real part using Kramers Kronig
   OMEGAMAX=  -1.0    maximum frequency
   DEG_THRESHOLD= 0.2000000E-02 threshold for treating states as degnerate
   RTIME   =    0.100 relaxation time in fs

 Orbital magnetization related:
   ORBITALMAG=     F  switch on orbital magnetization
   LCHIMAG   =     F  perturbation theory with respect to B field
   DQ        =  0.001000  dq finite difference perturbation B field



--------------------------------------------------------------------------------------------------------


 conjugate gradient relaxation of ions
 charge density and potential will be updated during run
 spin polarized calculation
 Variant of blocked Davidson
 Davidson routine will perform the subspace rotation
 perform sub-space diagonalisation
    after iterative eigenvector-optimisation
 modified Broyden-mixing scheme, WC =      100.0
 initial mixing is a Kerker type mixing with AMIX =  0.4000 and BMIX =      1.0000
 Hartree-type preconditioning will be used
 using additional bands           17
 reciprocal scheme for non local part
 use partial core corrections
 calculate Harris-corrections to forces 
   (improved forces if not selfconsistent)
 use gradient corrections 
 use of overlap-Matrix (Vanderbilt PP)
 Gauss-broadening in eV      SIGMA  =   0.00


--------------------------------------------------------------------------------------------------------


  energy-cutoff  :      250.93
  volume of cell :     6794.91
      direct lattice vectors                 reciprocal lattice vectors
    18.940640100  0.000000000  0.000000000     0.052796526  0.000000000  0.000000000
     0.000000000 18.940640100  0.000000000     0.000000000  0.052796526  0.000000000
     0.000000000  0.000000000 18.940640100     0.000000000  0.000000000  0.052796526

  length of vectors
    18.940640100 18.940640100 18.940640100     0.052796526  0.052796526  0.052796526


 
 k-points in units of 2pi/SCALE and weight: Gamma-point only                        
   0.00000000  0.00000000  0.00000000       1.000
 
 k-points in reciprocal lattice and weights: Gamma-point only                        
   0.00000000  0.00000000  0.00000000       1.000
 
 position of ions in fractional coordinates (direct lattice) 
   0.59475901  0.60342745  0.58713141
   0.41207109  0.52630169  0.46325149
   0.52458534  0.61577237  0.46621738
   0.64455283  0.53899568  0.47037580
   0.60753636  0.40047124  0.46849821
   0.46582244  0.38869558  0.46497431
   0.53510126  0.49119199  0.39516070
   0.53365910  0.48310258  0.54989066
   0.45381795  0.58673503  0.58738290
   0.39718695  0.45038178  0.58064455
   0.33090767  0.41492460  0.46647259
 
 position of ions in cartesian coordinates  (Angst):
  11.26511636 11.42930215 11.12064467
   7.80489022  9.96849098  8.77427966
   9.93598213 11.66312284  8.83045563
  12.20824312 10.20892316  8.90921881
  11.50712752  7.58518156  8.87365601
   8.82297528  7.36214312  8.80691105
  10.13516046  9.30349066  7.48459661
  10.10784502  9.15027217 10.41528100
   8.59560243 11.11313710 11.12540808
   7.52297500  8.53051929 10.99777952
   6.26760302  7.85893749  8.83528953
 


--------------------------------------------------------------------------------------------------------


 use parallel FFT for wavefunctions z direction half grid
 k-point  1 :   0.0000 0.0000 0.0000  plane waves:   30723

 maximum and minimum number of plane-waves per node :      3846     3836

 maximum number of plane-waves:     30723
 maximum index in each direction: 
   IXMAX=   24   IYMAX=   24   IZMAX=   24
   IXMIN=  -24   IYMIN=  -24   IZMIN=    0

 WARNING: aliasing errors must be expected set NGX to  98 to avoid them
 WARNING: aliasing errors must be expected set NGY to  98 to avoid them
 WARNING: aliasing errors must be expected set NGZ to  98 to avoid them
 aliasing errors are usually negligible using standard VASP settings
 and one can safely disregard these warnings

 parallel 3D FFT for wavefunctions:
    minimum data exchange during FFTs selected (reduces bandwidth)
 parallel 3D FFT for charge:
    minimum data exchange during FFTs selected (reduces bandwidth)


 total amount of memory used by VASP on root node    53695. kBytes
========================================================================

   base      :      30000. kBytes
   nonl-proj :       1228. kBytes
   fftplans  :       5763. kBytes
   grid      :      14451. kBytes
   one-center:         31. kBytes
   wavefun   :       2222. kBytes
 
     INWAV:  cpu time    0.00: real time    0.00
 Broyden mixing: mesh for mixing (old mesh)
   NGX = 49   NGY = 49   NGZ = 49
  (NGX  =160   NGY  =160   NGZ  =160)
  gives a total of 117649 points

 initial charge density was supplied:
 charge density of overlapping atoms calculated
 number of electron     110.0000000 magnetization      11.0000000
 keeping initial charge density in first step


--------------------------------------------------------------------------------------------------------


 Maximum index for augmentation-charges          285 (set IRDMAX)


--------------------------------------------------------------------------------------------------------


 First call to EWALD:  gamma=   0.094
 Maximum number of real-space cells 3x 3x 3
 Maximum number of reciprocal cells 3x 3x 3

 FEWALD executed in parallel
    FEWALD:  cpu time    0.00: real time    0.00


----------------------------------------- Iteration    1(   1)  ---------------------------------------


    POTLOK:  cpu time    0.23: real time    0.23
    SETDIJ:  cpu time    0.01: real time    0.01
     EDDAV:  cpu time    0.63: real time    0.63
       DOS:  cpu time    0.00: real time    0.00
    --------------------------------------------
      LOOP:  cpu time    0.87: real time    0.89

 eigenvalue-minimisations  :   288
 total energy-change (2. order) : 0.9300349E+03  (-0.1618513E+04)
 number of electron     110.0000000 magnetization      11.0000000
 augmentation part      110.0000000 magnetization      11.0000000

 Free energy of the ion-electron system (eV)
  ---------------------------------------------------
  alpha Z        PSCENC =        11.60603708
  Ewald energy   TEWEN  =     10865.34253298
  -Hartree energ DENC   =    -19362.70316800
  -exchange      EXHF   =         0.00000000
  -V(xc)+E(xc)   XCENC  =      -332.38665875
  PAW double counting   =      8873.12721117    -8188.75509675
  entropy T*S    EENTRO =         0.00000000
  eigenvalues    EBANDS =       157.23888706
  atomic energy  EATOM  =      8906.56515536
  ---------------------------------------------------
  free energy    TOTEN  =       930.03490015 eV

  energy without entropy =      930.03490015  energy(sigma->0) =      930.03490015


--------------------------------------------------------------------------------------------------------




----------------------------------------- Iteration    1(   2)  ---------------------------------------


     EDDAV:  cpu time    1.04: real time    1.04
       DOS:  cpu time    0.00: real time    0.00
    --------------------------------------------
      LOOP:  cpu time    1.04: real time    1.04

 eigenvalue-minimisations  :   544
 total energy-change (2. order) :-0.5277148E+03  (-0.4674007E+03)
 number of electron     110.0000000 magnetization      11.0000000
 augmentation part      110.0000000 magnetization      11.0000000

 Free energy of the ion-electron system (eV)
  ---------------------------------------------------
  alpha Z        PSCENC =        11.60603708
  Ewald energy   TEWEN  =     10865.34253298
  -Hartree energ DENC   =    -19362.70316800
  -exchange      EXHF   =         0.00000000
  -V(xc)+E(xc)   XCENC  =      -332.38665875
  PAW double counting   =      8873.12721117    -8188.75509675
  entropy T*S    EENTRO =         0.00000000
  eigenvalues    EBANDS =      -370.47595923
  atomic energy  EATOM  =      8906.56515536
  ---------------------------------------------------
  free energy    TOTEN  =       402.32005386 eV

  energy without entropy =      402.32005386  energy(sigma->0) =      402.32005386


--------------------------------------------------------------------------------------------------------




----------------------------------------- Iteration    1(   3)  ---------------------------------------


     EDDAV:  cpu time    0.91: real time    0.91
       DOS:  cpu time    0.00: real time    0.00
    --------------------------------------------
      LOOP:  cpu time    0.91: real time    0.94

 eigenvalue-minimisations  :   456
 total energy-change (2. order) :-0.3667735E+03  (-0.3468775E+03)
 number of electron     110.0000000 magnetization      11.0000000
 augmentation part      110.0000000 magnetization      11.0000000

 Free energy of the ion-electron system (eV)
  ---------------------------------------------------
  alpha Z        PSCENC =        11.60603708
  Ewald energy   TEWEN  =     10865.34253298
  -Hartree energ DENC   =    -19362.70316800
  -exchange      EXHF   =         0.00000000
  -V(xc)+E(xc)   XCENC  =      -332.38665875
  PAW double counting   =      8873.12721117    -8188.75509675
  entropy T*S    EENTRO =         0.00000000
  eigenvalues    EBANDS =      -737.24948503
  atomic energy  EATOM  =      8906.56515536
  ---------------------------------------------------
  free energy    TOTEN  =        35.54652806 eV

  energy without entropy =       35.54652806  energy(sigma->0) =       35.54652806


--------------------------------------------------------------------------------------------------------




----------------------------------------- Iteration    1(   4)  ---------------------------------------


     EDDAV:  cpu time    0.82: real time    0.82
       DOS:  cpu time    0.00: real time    0.00
    --------------------------------------------
      LOOP:  cpu time    0.82: real time    0.83

 eigenvalue-minimisations  :   400
 total energy-change (2. order) :-0.7244685E+02  (-0.6344897E+02)
 number of electron     110.0000000 magnetization      11.0000000
 augmentation part      110.0000000 magnetization      11.0000000

 Free energy of the ion-electron system (eV)
  ---------------------------------------------------
  alpha Z        PSCENC =        11.60603708
  Ewald energy   TEWEN  =     10865.34253298
  -Hartree energ DENC   =    -19362.70316800
  -exchange      EXHF   =         0.00000000
  -V(xc)+E(xc)   XCENC  =      -332.38665875
  PAW double counting   =      8873.12721117    -8188.75509675
  entropy T*S    EENTRO =         0.00000000
  eigenvalues    EBANDS =      -809.69633279
  atomic energy  EATOM  =      8906.56515536
  ---------------------------------------------------
  free energy    TOTEN  =       -36.90031970 eV

  energy without entropy =      -36.90031970  energy(sigma->0) =      -36.90031970


--------------------------------------------------------------------------------------------------------




----------------------------------------- Iteration    1(   5)  ---------------------------------------


     EDDAV:  cpu time    0.78: real time    0.78
       DOS:  cpu time    0.00: real time    0.00
    CHARGE:  cpu time    0.05: real time    0.05
    MIXING:  cpu time    0.01: real time    0.01
    --------------------------------------------
      LOOP:  cpu time    0.84: real time    0.85

 eigenvalue-minimisations  :   376
 total energy-change (2. order) :-0.7012746E+01  (-0.6091104E+01)
 number of electron     110.0000009 magnetization      10.2069148
 augmentation part       47.0009177 magnetization       7.3137746

 Broyden mixing:
  rms(total) = 0.16467E+01    rms(broyden)= 0.16432E+01
  rms(prec ) = 0.17367E+01
  weight for this iteration     100.00

 Free energy of the ion-electron system (eV)
  ---------------------------------------------------
  alpha Z        PSCENC =        11.60603708
  Ewald energy   TEWEN  =     10865.34253298
  -Hartree energ DENC   =    -19362.70316800
  -exchange      EXHF   =         0.00000000
  -V(xc)+E(xc)   XCENC  =      -332.38665875
  PAW double counting   =      8873.12721117    -8188.75509675
  entropy T*S    EENTRO =         0.00000000
  eigenvalues    EBANDS =      -816.70907922
  atomic energy  EATOM  =      8906.56515536
  ---------------------------------------------------
  free energy    TOTEN  =       -43.91306614 eV

  energy without entropy =      -43.91306614  energy(sigma->0) =      -43.91306614


--------------------------------------------------------------------------------------------------------




----------------------------------------- Iteration    1(   6)  ---------------------------------------


    POTLOK:  cpu time    0.22: real time    0.22
    SETDIJ:  cpu time    0.01: real time    0.01
     EDDAV:  cpu time    0.66: real time    0.66
       DOS:  cpu time    0.00: real time    0.00
    CHARGE:  cpu time    0.05: real time    0.05
    MIXING:  cpu time    0.01: real time    0.01
    --------------------------------------------
      LOOP:  cpu time    0.95: real time    0.96

 eigenvalue-minimisations  :   304
 total energy-change (2. order) : 0.4695307E+01  (-0.1067091E+01)
 number of electron     110.0000012 magnetization       9.4684207
 augmentation part       47.2022253 magnetization       6.0282216

 Broyden mixing:
  rms(total) = 0.82866E+00    rms(broyden)= 0.82765E+00
  rms(prec ) = 0.88153E+00
  weight for this iteration     100.00

 eigenvalues of (default mixing * dielectric matrix)
  average eigenvalue GAMMA=   0.8641
  0.8641

 Free energy of the ion-electron system (eV)
  ---------------------------------------------------
  alpha Z        PSCENC =        11.60603708
  Ewald energy   TEWEN  =     10865.34253298
  -Hartree energ DENC   =    -19420.73504472
  -exchange      EXHF   =         0.00000000
  -V(xc)+E(xc)   XCENC  =      -331.21608956
  PAW double counting   =      9384.08294109    -8704.36973046
  entropy T*S    EENTRO =         0.00000000
  eigenvalues    EBANDS =      -750.49356097
  atomic energy  EATOM  =      8906.56515536
  ---------------------------------------------------
  free energy    TOTEN  =       -39.21775920 eV

  energy without entropy =      -39.21775920  energy(sigma->0) =      -39.21775920


--------------------------------------------------------------------------------------------------------




----------------------------------------- Iteration    1(   7)  ---------------------------------------


    POTLOK:  cpu time    0.22: real time    0.23
    SETDIJ:  cpu time    0.01: real time    0.01
     EDDAV:  cpu time    0.65: real time    0.65
       DOS:  cpu time    0.00: real time    0.00
    CHARGE:  cpu time    0.05: real time    0.05
    MIXING:  cpu time    0.01: real time    0.01
    --------------------------------------------
      LOOP:  cpu time    0.94: real time    0.95

 eigenvalue-minimisations  :   296
 total energy-change (2. order) : 0.3011103E+01  (-0.6712304E+00)
 number of electron     110.0000000 magnetization       9.0759085
 augmentation part       47.1143889 magnetization       5.6239475

 Broyden mixing:
  rms(total) = 0.12155E+01    rms(broyden)= 0.12137E+01
  rms(prec ) = 0.13894E+01
  weight for this iteration     100.00

 eigenvalues of (default mixing * dielectric matrix)
  average eigenvalue GAMMA=   0.7563
  0.3675  1.1450

 Free energy of the ion-electron system (eV)
  ---------------------------------------------------
  alpha Z        PSCENC =        11.60603708
  Ewald energy   TEWEN  =     10865.34253298
  -Hartree energ DENC   =    -19458.26486318
  -exchange      EXHF   =         0.00000000
  -V(xc)+E(xc)   XCENC  =      -327.72943373
  PAW double counting   =      9674.74341048    -8997.06378307
  entropy T*S    EENTRO =         0.00000000
  eigenvalues    EBANDS =      -711.40571193
  atomic energy  EATOM  =      8906.56515536
  ---------------------------------------------------
  free energy    TOTEN  =       -36.20665601 eV

  energy without entropy =      -36.20665601  energy(sigma->0) =      -36.20665601


--------------------------------------------------------------------------------------------------------




----------------------------------------- Iteration    1(   8)  ---------------------------------------


    POTLOK:  cpu time    0.23: real time    0.23
    SETDIJ:  cpu time    0.00: real time    0.01
     EDDAV:  cpu time    0.66: real time    0.66
       DOS:  cpu time    0.00: real time    0.00
    CHARGE:  cpu time    0.04: real time    0.05
    MIXING:  cpu time    0.01: real time    0.01
    --------------------------------------------
      LOOP:  cpu time    0.95: real time    0.96

 eigenvalue-minimisations  :   304
 total energy-change (2. order) : 0.1231428E+01  (-0.6810747E+00)
 number of electron     110.0000013 magnetization       8.7689481
 augmentation part       47.1123678 magnetization       5.3415871

 Broyden mixing:
  rms(total) = 0.67700E+00    rms(broyden)= 0.67314E+00
  rms(prec ) = 0.77718E+00
  weight for this iteration     100.00

 eigenvalues of (default mixing * dielectric matrix)
  average eigenvalue GAMMA=   0.7582
  1.4672  0.5715  0.2360

 Free energy of the ion-electron system (eV)
  ---------------------------------------------------
  alpha Z        PSCENC =        11.60603708
  Ewald energy   TEWEN  =     10865.34253298
  -Hartree energ DENC   =    -19477.38540703
  -exchange      EXHF   =         0.00000000
  -V(xc)+E(xc)   XCENC  =      -327.03945157
  PAW double counting   =      9797.88758184    -9121.13888444
  entropy T*S    EENTRO =         0.00000000
  eigenvalues    EBANDS =      -690.81279191
  atomic energy  EATOM  =      8906.56515536
  ---------------------------------------------------
  free energy    TOTEN  =       -34.97522769 eV

  energy without entropy =      -34.97522769  energy(sigma->0) =      -34.97522769


--------------------------------------------------------------------------------------------------------




----------------------------------------- Iteration    1(   9)  ---------------------------------------


    POTLOK:  cpu time    0.22: real time    0.23
    SETDIJ:  cpu time    0.01: real time    0.01
     EDDAV:  cpu time    0.69: real time    0.69
       DOS:  cpu time    0.00: real time    0.00
    CHARGE:  cpu time    0.05: real time    0.05
    MIXING:  cpu time    0.01: real time    0.01
    --------------------------------------------
      LOOP:  cpu time    0.98: real time    0.99

 eigenvalue-minimisations  :   320
 total energy-change (2. order) :-0.7339560E-01  (-0.1679773E+00)
 number of electron     110.0000010 magnetization       8.4554108
 augmentation part       47.0664911 magnetization       5.0589158

 Broyden mixing:
  rms(total) = 0.45043E+00    rms(broyden)= 0.44760E+00
  rms(prec ) = 0.50414E+00
  weight for this iteration     100.00

 eigenvalues of (default mixing * dielectric matrix)
  average eigenvalue GAMMA=   0.7154
  1.6893  0.6662  0.2531  0.2531

 Free energy of the ion-electron system (eV)
  ---------------------------------------------------
  alpha Z        PSCENC =        11.60603708
  Ewald energy   TEWEN  =     10865.34253298
  -Hartree energ DENC   =    -19489.16676528
  -exchange      EXHF   =         0.00000000
  -V(xc)+E(xc)   XCENC  =      -327.16147390
  PAW double counting   =      9866.39435270    -9190.11851816
  entropy T*S    EENTRO =         0.00000000
  eigenvalues    EBANDS =      -678.50994407
  atomic energy  EATOM  =      8906.56515536
  ---------------------------------------------------
  free energy    TOTEN  =       -35.04862329 eV

  energy without entropy =      -35.04862329  energy(sigma->0) =      -35.04862329


--------------------------------------------------------------------------------------------------------




----------------------------------------- Iteration    1(  10)  ---------------------------------------


    POTLOK:  cpu time    0.23: real time    0.23
    SETDIJ:  cpu time    0.00: real time    0.01
     EDDAV:  cpu time    0.69: real time    0.69
       DOS:  cpu time    0.00: real time    0.00
    CHARGE:  cpu time    0.05: real time    0.05
    MIXING:  cpu time    0.01: real time    0.01
    --------------------------------------------
      LOOP:  cpu time    0.98: real time    0.99

 eigenvalue-minimisations  :   320
 total energy-change (2. order) :-0.4418541E+00  (-0.1166495E+00)
 number of electron     110.0000010 magnetization       8.1611149
 augmentation part       47.0523867 magnetization       4.8430217

 Broyden mixing:
  rms(total) = 0.27316E+00    rms(broyden)= 0.27027E+00
  rms(prec ) = 0.30373E+00
  weight for this iteration     100.00

 eigenvalues of (default mixing * dielectric matrix)
  average eigenvalue GAMMA=   0.7031
  1.7890  0.6328  0.6328  0.2303  0.2303

 Free energy of the ion-electron system (eV)
  ---------------------------------------------------
  alpha Z        PSCENC =        11.60603708
  Ewald energy   TEWEN  =     10865.34253298
  -Hartree energ DENC   =    -19497.64335780
  -exchange      EXHF   =         0.00000000
  -V(xc)+E(xc)   XCENC  =      -327.41418242
  PAW double counting   =      9915.59279513    -9239.67691355
  entropy T*S    EENTRO =         0.00000000
  eigenvalues    EBANDS =      -669.86254417
  atomic energy  EATOM  =      8906.56515536
  ---------------------------------------------------
  free energy    TOTEN  =       -35.49047740 eV

  energy without entropy =      -35.49047740  energy(sigma->0) =      -35.49047740


--------------------------------------------------------------------------------------------------------




----------------------------------------- Iteration    1(  11)  ---------------------------------------


    POTLOK:  cpu time    0.23: real time    0.23
    SETDIJ:  cpu time    0.00: real time    0.01
     EDDAV:  cpu time    0.69: real time    0.69
       DOS:  cpu time    0.00: real time    0.00
    CHARGE:  cpu time    0.05: real time    0.05
    MIXING:  cpu time    0.01: real time    0.01
    --------------------------------------------
      LOOP:  cpu time    0.98: real time    0.98

 eigenvalue-minimisations  :   320
 total energy-change (2. order) :-0.6862723E+00  (-0.2542587E-01)
 number of electron     110.0000009 magnetization       7.8777355
 augmentation part       47.0327433 magnetization       4.6344350

 Broyden mixing:
  rms(total) = 0.19344E+00    rms(broyden)= 0.19234E+00
  rms(prec ) = 0.21489E+00
  weight for this iteration     100.00

 eigenvalues of (default mixing * dielectric matrix)
  average eigenvalue GAMMA=   0.7043
  1.8416  0.7895  0.7895  0.2046  0.3003  0.3003

 Free energy of the ion-electron system (eV)
  ---------------------------------------------------
  alpha Z        PSCENC =        11.60603708
  Ewald energy   TEWEN  =     10865.34253298
  -Hartree energ DENC   =    -19503.79879539
  -exchange      EXHF   =         0.00000000
  -V(xc)+E(xc)   XCENC  =      -327.87434776
  PAW double counting   =      9939.49668341    -9263.80320967
  entropy T*S    EENTRO =         0.00000000
  eigenvalues    EBANDS =      -663.71080567
  atomic energy  EATOM  =      8906.56515536
  ---------------------------------------------------
  free energy    TOTEN  =       -36.17674966 eV

  energy without entropy =      -36.17674966  energy(sigma->0) =      -36.17674966


--------------------------------------------------------------------------------------------------------




----------------------------------------- Iteration    1(  12)  ---------------------------------------


    POTLOK:  cpu time    0.23: real time    0.23
    SETDIJ:  cpu time    0.00: real time    0.01
     EDDAV:  cpu time    0.69: real time    0.69
       DOS:  cpu time    0.00: real time    0.00
    CHARGE:  cpu time    0.05: real time    0.05
    MIXING:  cpu time    0.01: real time    0.01
    --------------------------------------------
      LOOP:  cpu time    0.98: real time    0.98

 eigenvalue-minimisations  :   320
 total energy-change (2. order) :-0.7251277E+00  (-0.1733669E-01)
 number of electron     110.0000009 magnetization       7.5501759
 augmentation part       47.0177293 magnetization       4.3721714

 Broyden mixing:
  rms(total) = 0.15313E+00    rms(broyden)= 0.15284E+00
  rms(prec ) = 0.17508E+00
  weight for this iteration     100.00

 eigenvalues of (default mixing * dielectric matrix)
  average eigenvalue GAMMA=   0.7527
  1.9754  1.3082  0.7135  0.4996  0.2085  0.3144  0.2494

 Free energy of the ion-electron system (eV)
  ---------------------------------------------------
  alpha Z        PSCENC =        11.60603708
  Ewald energy   TEWEN  =     10865.34253298
  -Hartree energ DENC   =    -19509.36689546
  -exchange      EXHF   =         0.00000000
  -V(xc)+E(xc)   XCENC  =      -328.40015854
  PAW double counting   =      9950.78888202    -9275.27871726
  entropy T*S    EENTRO =         0.00000000
  eigenvalues    EBANDS =      -658.15871358
  atomic energy  EATOM  =      8906.56515536
  ---------------------------------------------------
  free energy    TOTEN  =       -36.90187740 eV

  energy without entropy =      -36.90187740  energy(sigma->0) =      -36.90187740


--------------------------------------------------------------------------------------------------------




----------------------------------------- Iteration    1(  13)  ---------------------------------------


    POTLOK:  cpu time    0.22: real time    0.23
    SETDIJ:  cpu time    0.01: real time    0.01
     EDDAV:  cpu time    0.70: real time    0.70
       DOS:  cpu time    0.00: real time    0.00
    CHARGE:  cpu time    0.05: real time    0.05
    MIXING:  cpu time    0.01: real time    0.01
    --------------------------------------------
      LOOP:  cpu time    0.99: real time    1.00

 eigenvalue-minimisations  :   328
 total energy-change (2. order) :-0.8498744E+00  (-0.1980891E-01)
 number of electron     110.0000009 magnetization       7.3010784
 augmentation part       47.0093302 magnetization       4.1981888

 Broyden mixing:
  rms(total) = 0.13243E+00    rms(broyden)= 0.13194E+00
  rms(prec ) = 0.15063E+00
  weight for this iteration     100.00

 eigenvalues of (default mixing * dielectric matrix)
  average eigenvalue GAMMA=   0.7566
  2.0992  1.5057  0.6911  0.6911  0.3543  0.2696  0.2402  0.2018

 Free energy of the ion-electron system (eV)
  ---------------------------------------------------
  alpha Z        PSCENC =        11.60603708
  Ewald energy   TEWEN  =     10865.34253298
  -Hartree energ DENC   =    -19514.79128201
  -exchange      EXHF   =         0.00000000
  -V(xc)+E(xc)   XCENC  =      -329.03926595
  PAW double counting   =      9954.59686709    -9279.27635382
  entropy T*S    EENTRO =         0.00000000
  eigenvalues    EBANDS =      -652.75544250
  atomic energy  EATOM  =      8906.56515536
  ---------------------------------------------------
  free energy    TOTEN  =       -37.75175177 eV

  energy without entropy =      -37.75175177  energy(sigma->0) =      -37.75175177


--------------------------------------------------------------------------------------------------------




----------------------------------------- Iteration    1(  14)  ---------------------------------------


    POTLOK:  cpu time    0.23: real time    0.23
    SETDIJ:  cpu time    0.00: real time    0.01
     EDDAV:  cpu time    0.66: real time    0.66
       DOS:  cpu time    0.00: real time    0.00
    CHARGE:  cpu time    0.05: real time    0.05
    MIXING:  cpu time    0.01: real time    0.01
    --------------------------------------------
      LOOP:  cpu time    0.95: real time    0.96

 eigenvalue-minimisations  :   304
 total energy-change (2. order) :-0.6711609E+00  (-0.1379187E-01)
 number of electron     110.0000010 magnetization       7.0672507
 augmentation part       47.0082066 magnetization       4.0178616

 Broyden mixing:
  rms(total) = 0.78808E-01    rms(broyden)= 0.78363E-01
  rms(prec ) = 0.88149E-01
  weight for this iteration     100.00

 eigenvalues of (default mixing * dielectric matrix)
  average eigenvalue GAMMA=   0.7751
  2.2506  1.6066  0.7753  0.7753  0.5504  0.3155  0.2734  0.2271  0.2022

 Free energy of the ion-electron system (eV)
  ---------------------------------------------------
  alpha Z        PSCENC =        11.60603708
  Ewald energy   TEWEN  =     10865.34253298
  -Hartree energ DENC   =    -19518.10951522
  -exchange      EXHF   =         0.00000000
  -V(xc)+E(xc)   XCENC  =      -329.57145054
  PAW double counting   =      9950.71828023    -9275.53481732
  entropy T*S    EENTRO =         0.00000000
  eigenvalues    EBANDS =      -649.43913525
  atomic energy  EATOM  =      8906.56515536
  ---------------------------------------------------
  free energy    TOTEN  =       -38.42291268 eV

  energy without entropy =      -38.42291268  energy(sigma->0) =      -38.42291268


--------------------------------------------------------------------------------------------------------




----------------------------------------- Iteration    1(  15)  ---------------------------------------


    POTLOK:  cpu time    0.22: real time    0.23
    SETDIJ:  cpu time    0.01: real time    0.01
     EDDAV:  cpu time    0.68: real time    0.68
       DOS:  cpu time    0.00: real time    0.00
    CHARGE:  cpu time    0.05: real time    0.05
    MIXING:  cpu time    0.01: real time    0.01
    --------------------------------------------
      LOOP:  cpu time    0.97: real time    0.97

 eigenvalue-minimisations  :   312
 total energy-change (2. order) :-0.5855475E+00  (-0.8159746E-02)
 number of electron     110.0000010 magnetization       6.8662333
 augmentation part       47.0052050 magnetization       3.8664346

 Broyden mixing:
  rms(total) = 0.68359E-01    rms(broyden)= 0.68124E-01
  rms(prec ) = 0.76555E-01
  weight for this iteration     100.00

 eigenvalues of (default mixing * dielectric matrix)
  average eigenvalue GAMMA=   0.8013
  2.5244  1.7485  0.8409  0.8409  0.6933  0.3738  0.2835  0.2835  0.2031  0.2211

 Free energy of the ion-electron system (eV)
  ---------------------------------------------------
  alpha Z        PSCENC =        11.60603708
  Ewald energy   TEWEN  =     10865.34253298
  -Hartree energ DENC   =    -19521.09622908
  -exchange      EXHF   =         0.00000000
  -V(xc)+E(xc)   XCENC  =      -330.05095908
  PAW double counting   =      9944.62134698    -9269.56330513
  entropy T*S    EENTRO =         0.00000000
  eigenvalues    EBANDS =      -646.43303927
  atomic energy  EATOM  =      8906.56515536
  ---------------------------------------------------
  free energy    TOTEN  =       -39.00846015 eV

  energy without entropy =      -39.00846015  energy(sigma->0) =      -39.00846015


--------------------------------------------------------------------------------------------------------




----------------------------------------- Iteration    1(  16)  ---------------------------------------


    POTLOK:  cpu time    0.22: real time    0.23
    SETDIJ:  cpu time    0.01: real time    0.01
     EDDAV:  cpu time    0.69: real time    0.69
       DOS:  cpu time    0.00: real time    0.00
    CHARGE:  cpu time    0.05: real time    0.05
    MIXING:  cpu time    0.01: real time    0.01
    --------------------------------------------
      LOOP:  cpu time    0.98: real time    0.98

 eigenvalue-minimisations  :   320
 total energy-change (2. order) :-0.4736488E+00  (-0.5629368E-02)
 number of electron     110.0000009 magnetization       6.6508489
 augmentation part       47.0002842 magnetization       3.6911961

 Broyden mixing:
  rms(total) = 0.40746E-01    rms(broyden)= 0.40575E-01
  rms(prec ) = 0.45922E-01
  weight for this iteration     100.00

 eigenvalues of (default mixing * dielectric matrix)
  average eigenvalue GAMMA=   0.8447
  2.7338  1.9607  0.9701  0.9701  0.7607  0.5754  0.3475  0.2028  0.2202  0.2753
  0.2753

 Free energy of the ion-electron system (eV)
  ---------------------------------------------------
  alpha Z        PSCENC =        11.60603708
  Ewald energy   TEWEN  =     10865.34253298
  -Hartree energ DENC   =    -19523.22408454
  -exchange      EXHF   =         0.00000000
  -V(xc)+E(xc)   XCENC  =      -330.44773702
  PAW double counting   =      9937.47749620    -9262.51149411
  entropy T*S    EENTRO =         0.00000000
  eigenvalues    EBANDS =      -644.29001493
  atomic energy  EATOM  =      8906.56515536
  ---------------------------------------------------
  free energy    TOTEN  =       -39.48210898 eV

  energy without entropy =      -39.48210898  energy(sigma->0) =      -39.48210898


--------------------------------------------------------------------------------------------------------




----------------------------------------- Iteration    1(  17)  ---------------------------------------


    POTLOK:  cpu time    0.22: real time    0.23
    SETDIJ:  cpu time    0.01: real time    0.01
     EDDAV:  cpu time    0.70: real time    0.70
       DOS:  cpu time    0.00: real time    0.00
    CHARGE:  cpu time    0.05: real time    0.05
    MIXING:  cpu time    0.01: real time    0.01
    --------------------------------------------
      LOOP:  cpu time    1.00: real time    1.00

 eigenvalue-minimisations  :   328
 total energy-change (2. order) :-0.5024952E+00  (-0.4897116E-02)
 number of electron     110.0000010 magnetization       6.4828797
 augmentation part       47.0027777 magnetization       3.5595112

 Broyden mixing:
  rms(total) = 0.39113E-01    rms(broyden)= 0.39011E-01
  rms(prec ) = 0.44274E-01
  weight for this iteration     100.00

 eigenvalues of (default mixing * dielectric matrix)
  average eigenvalue GAMMA=   0.8537
  2.9213  2.0922  1.0614  1.0614  0.7685  0.6051  0.4351  0.2025  0.2209  0.3042
  0.3042  0.2674

 Free energy of the ion-electron system (eV)
  ---------------------------------------------------
  alpha Z        PSCENC =        11.60603708
  Ewald energy   TEWEN  =     10865.34253298
  -Hartree energ DENC   =    -19524.68011590
  -exchange      EXHF   =         0.00000000
  -V(xc)+E(xc)   XCENC  =      -330.90131297
  PAW double counting   =      9925.01890302    -9250.12656658
  entropy T*S    EENTRO =         0.00000000
  eigenvalues    EBANDS =      -642.80923716
  atomic energy  EATOM  =      8906.56515536
  ---------------------------------------------------
  free energy    TOTEN  =       -39.98460418 eV

  energy without entropy =      -39.98460418  energy(sigma->0) =      -39.98460418


--------------------------------------------------------------------------------------------------------




----------------------------------------- Iteration    1(  18)  ---------------------------------------


    POTLOK:  cpu time    0.22: real time    0.23
    SETDIJ:  cpu time    0.01: real time    0.01
     EDDAV:  cpu time    0.72: real time    0.71
       DOS:  cpu time    0.00: real time    0.00
    CHARGE:  cpu time    0.05: real time    0.05
    MIXING:  cpu time    0.01: real time    0.01
    --------------------------------------------
      LOOP:  cpu time    1.00: real time    1.01

 eigenvalue-minimisations  :   336
 total energy-change (2. order) :-0.3289579E+00  (-0.2816171E-02)
 number of electron     110.0000009 magnetization       6.3061516
 augmentation part       46.9988918 magnetization       3.4103498

 Broyden mixing:
  rms(total) = 0.29743E-01    rms(broyden)= 0.29632E-01
  rms(prec ) = 0.33937E-01
  weight for this iteration     100.00

 eigenvalues of (default mixing * dielectric matrix)
  average eigenvalue GAMMA=   0.9242
  3.3508  2.3767  1.3507  0.9429  0.9429  0.7572  0.6691  0.3569  0.2027  0.2204
  0.2855  0.2855  0.2727

 Free energy of the ion-electron system (eV)
  ---------------------------------------------------
  alpha Z        PSCENC =        11.60603708
  Ewald energy   TEWEN  =     10865.34253298
  -Hartree energ DENC   =    -19525.68646010
  -exchange      EXHF   =         0.00000000
  -V(xc)+E(xc)   XCENC  =      -331.20722652
  PAW double counting   =      9916.08585243    -9241.23855637
  entropy T*S    EENTRO =         0.00000000
  eigenvalues    EBANDS =      -641.78089689
  atomic energy  EATOM  =      8906.56515536
  ---------------------------------------------------
  free energy    TOTEN  =       -40.31356203 eV

  energy without entropy =      -40.31356203  energy(sigma->0) =      -40.31356203


--------------------------------------------------------------------------------------------------------




----------------------------------------- Iteration    1(  19)  ---------------------------------------


    POTLOK:  cpu time    0.22: real time    0.23
    SETDIJ:  cpu time    0.01: real time    0.01
     EDDAV:  cpu time    0.69: real time    0.69
       DOS:  cpu time    0.00: real time    0.00
    CHARGE:  cpu time    0.05: real time    0.05
    MIXING:  cpu time    0.01: real time    0.01
    --------------------------------------------
      LOOP:  cpu time    0.98: real time    0.98

 eigenvalue-minimisations  :   320
 total energy-change (2. order) :-0.2823130E+00  (-0.2159741E-02)
 number of electron     110.0000009 magnetization       6.2276999
 augmentation part       47.0019440 magnetization       3.3529682

 Broyden mixing:
  rms(total) = 0.16795E-01    rms(broyden)= 0.16715E-01
  rms(prec ) = 0.19108E-01
  weight for this iteration     100.00

 eigenvalues of (default mixing * dielectric matrix)
  average eigenvalue GAMMA=   0.9499
  3.8205  2.4248  1.6005  0.9479  0.9479  0.7330  0.6603  0.5480  0.3578  0.2027
  0.2203  0.2859  0.2859  0.2628

 Free energy of the ion-electron system (eV)
  ---------------------------------------------------
  alpha Z        PSCENC =        11.60603708
  Ewald energy   TEWEN  =     10865.34253298
  -Hartree energ DENC   =    -19526.56773343
  -exchange      EXHF   =         0.00000000
  -V(xc)+E(xc)   XCENC  =      -331.48056039
  PAW double counting   =      9908.50127424    -9233.69415518
  entropy T*S    EENTRO =         0.00000000
  eigenvalues    EBANDS =      -640.86842567
  atomic energy  EATOM  =      8906.56515536
  ---------------------------------------------------
  free energy    TOTEN  =       -40.59587502 eV

  energy without entropy =      -40.59587502  energy(sigma->0) =      -40.59587502


--------------------------------------------------------------------------------------------------------




----------------------------------------- Iteration    1(  20)  ---------------------------------------


    POTLOK:  cpu time    0.23: real time    0.23
    SETDIJ:  cpu time    0.01: real time    0.01
     EDDAV:  cpu time    0.70: real time    0.70
       DOS:  cpu time    0.00: real time    0.00
    CHARGE:  cpu time    0.05: real time    0.05
    MIXING:  cpu time    0.01: real time    0.01
    --------------------------------------------
      LOOP:  cpu time    1.00: real time    1.00

 eigenvalue-minimisations  :   328
 total energy-change (2. order) :-0.1110517E+00  (-0.5965620E-03)
 number of electron     110.0000009 magnetization       6.1362228
 augmentation part       47.0005431 magnetization       3.2707909

 Broyden mixing:
  rms(total) = 0.13873E-01    rms(broyden)= 0.13830E-01
  rms(prec ) = 0.16020E-01
  weight for this iteration     100.00

 eigenvalues of (default mixing * dielectric matrix)
  average eigenvalue GAMMA=   0.9822
  4.3961  2.4386  1.7872  0.9508  0.9508  0.8106  0.8106  0.6512  0.3674  0.2027
  0.2203  0.3029  0.3029  0.2708  0.2708

 Free energy of the ion-electron system (eV)
  ---------------------------------------------------
  alpha Z        PSCENC =        11.60603708
  Ewald energy   TEWEN  =     10865.34253298
  -Hartree energ DENC   =    -19527.00727607
  -exchange      EXHF   =         0.00000000
  -V(xc)+E(xc)   XCENC  =      -331.59054725
  PAW double counting   =      9907.11500723    -9232.32172566
  entropy T*S    EENTRO =         0.00000000
  eigenvalues    EBANDS =      -640.41611042
  atomic energy  EATOM  =      8906.56515536
  ---------------------------------------------------
  free energy    TOTEN  =       -40.70692675 eV

  energy without entropy =      -40.70692675  energy(sigma->0) =      -40.70692675


--------------------------------------------------------------------------------------------------------




----------------------------------------- Iteration    1(  21)  ---------------------------------------


    POTLOK:  cpu time    0.22: real time    0.23
    SETDIJ:  cpu time    0.00: real time    0.01
     EDDAV:  cpu time    0.72: real time    0.71
       DOS:  cpu time    0.00: real time    0.00
    CHARGE:  cpu time    0.05: real time    0.05
    MIXING:  cpu time    0.01: real time    0.01
    --------------------------------------------
      LOOP:  cpu time    1.00: real time    1.01

 eigenvalue-minimisations  :   336
 total energy-change (2. order) :-0.1081007E+00  (-0.5551645E-03)
 number of electron     110.0000009 magnetization       6.0806727
 augmentation part       47.0001782 magnetization       3.2251703

 Broyden mixing:
  rms(total) = 0.77321E-02    rms(broyden)= 0.76985E-02
  rms(prec ) = 0.92672E-02
  weight for this iteration     100.00

 eigenvalues of (default mixing * dielectric matrix)
  average eigenvalue GAMMA=   1.0056
  4.8544  2.3939  1.9272  0.9833  0.9833  0.9299  0.8222  0.6363  0.6363  0.3658
  0.2027  0.2203  0.2949  0.2949  0.2759  0.2679

 Free energy of the ion-electron system (eV)
  ---------------------------------------------------
  alpha Z        PSCENC =        11.60603708
  Ewald energy   TEWEN  =     10865.34253298
  -Hartree energ DENC   =    -19527.49616690
  -exchange      EXHF   =         0.00000000
  -V(xc)+E(xc)   XCENC  =      -331.70042550
  PAW double counting   =      9906.71677970    -9231.93331034
  entropy T*S    EENTRO =         0.00000000
  eigenvalues    EBANDS =      -639.91562985
  atomic energy  EATOM  =      8906.56515536
  ---------------------------------------------------
  free energy    TOTEN  =       -40.81502748 eV

  energy without entropy =      -40.81502748  energy(sigma->0) =      -40.81502748


--------------------------------------------------------------------------------------------------------




----------------------------------------- Iteration    1(  22)  ---------------------------------------


    POTLOK:  cpu time    0.22: real time    0.23
    SETDIJ:  cpu time    0.01: real time    0.01
     EDDAV:  cpu time    0.73: real time    0.73
       DOS:  cpu time    0.00: real time    0.00
    CHARGE:  cpu time    0.05: real time    0.05
    MIXING:  cpu time    0.01: real time    0.01
    --------------------------------------------
      LOOP:  cpu time    1.02: real time    1.03

 eigenvalue-minimisations  :   344
 total energy-change (2. order) :-0.5057623E-01  (-0.1973542E-03)
 number of electron     110.0000009 magnetization       6.0545776
 augmentation part       46.9995459 magnetization       3.2044209

 Broyden mixing:
  rms(total) = 0.65860E-02    rms(broyden)= 0.65626E-02
  rms(prec ) = 0.78420E-02
  weight for this iteration     100.00

 eigenvalues of (default mixing * dielectric matrix)
  average eigenvalue GAMMA=   1.0087
  5.0530  2.3900  2.0697  1.1105  1.0041  1.0041  0.7670  0.7670  0.6584  0.4073
  0.3648  0.2027  0.2203  0.2950  0.2950  0.2742  0.2656

 Free energy of the ion-electron system (eV)
  ---------------------------------------------------
  alpha Z        PSCENC =        11.60603708
  Ewald energy   TEWEN  =     10865.34253298
  -Hartree energ DENC   =    -19527.77810556
  -exchange      EXHF   =         0.00000000
  -V(xc)+E(xc)   XCENC  =      -331.75336100
  PAW double counting   =      9907.40231716    -9232.61859352
  entropy T*S    EENTRO =         0.00000000
  eigenvalues    EBANDS =      -639.63158621
  atomic energy  EATOM  =      8906.56515536
  ---------------------------------------------------
  free energy    TOTEN  =       -40.86560371 eV

  energy without entropy =      -40.86560371  energy(sigma->0) =      -40.86560371


--------------------------------------------------------------------------------------------------------




----------------------------------------- Iteration    1(  23)  ---------------------------------------


    POTLOK:  cpu time    0.22: real time    0.23
    SETDIJ:  cpu time    0.01: real time    0.01
     EDDAV:  cpu time    0.66: real time    0.67
       DOS:  cpu time    0.00: real time    0.00
    CHARGE:  cpu time    0.05: real time    0.05
    MIXING:  cpu time    0.01: real time    0.01
    --------------------------------------------
      LOOP:  cpu time    0.96: real time    0.96

 eigenvalue-minimisations  :   304
 total energy-change (2. order) :-0.2077966E-01  (-0.5854078E-04)
 number of electron     110.0000009 magnetization       6.0306938
 augmentation part       46.9986754 magnetization       3.1825372

 Broyden mixing:
  rms(total) = 0.42643E-02    rms(broyden)= 0.42482E-02
  rms(prec ) = 0.52968E-02
  weight for this iteration     100.00

 eigenvalues of (default mixing * dielectric matrix)
  average eigenvalue GAMMA=   1.0380
  5.3134  2.3717  2.3717  1.4379  1.0138  1.0138  0.8126  0.8126  0.6515  0.6490
  0.3663  0.2027  0.2203  0.3298  0.2909  0.2909  0.2676  0.2676

 Free energy of the ion-electron system (eV)
  ---------------------------------------------------
  alpha Z        PSCENC =        11.60603708
  Ewald energy   TEWEN  =     10865.34253298
  -Hartree energ DENC   =    -19527.85972156
  -exchange      EXHF   =         0.00000000
  -V(xc)+E(xc)   XCENC  =      -331.77599656
  PAW double counting   =      9908.17469091    -9233.38635124
  entropy T*S    EENTRO =         0.00000000
  eigenvalues    EBANDS =      -639.55273034
  atomic energy  EATOM  =      8906.56515536
  ---------------------------------------------------
  free energy    TOTEN  =       -40.88638337 eV

  energy without entropy =      -40.88638337  energy(sigma->0) =      -40.88638337


--------------------------------------------------------------------------------------------------------




----------------------------------------- Iteration    1(  24)  ---------------------------------------


    POTLOK:  cpu time    0.22: real time    0.23
    SETDIJ:  cpu time    0.01: real time    0.01
     EDDAV:  cpu time    0.66: real time    0.67
       DOS:  cpu time    0.00: real time    0.00
    CHARGE:  cpu time    0.05: real time    0.05
    MIXING:  cpu time    0.02: real time    0.01
    --------------------------------------------
      LOOP:  cpu time    0.96: real time    0.96

 eigenvalue-minimisations  :   304
 total energy-change (2. order) :-0.1409880E-01  (-0.5383691E-04)
 number of electron     110.0000009 magnetization       6.0133024
 augmentation part       46.9987660 magnetization       3.1668189

 Broyden mixing:
  rms(total) = 0.25824E-02    rms(broyden)= 0.25769E-02
  rms(prec ) = 0.34554E-02
  weight for this iteration     100.00

 eigenvalues of (default mixing * dielectric matrix)
  average eigenvalue GAMMA=   1.0529
  5.5242  2.4678  2.4678  1.5902  1.0468  1.0468  0.8423  0.8423  0.6831  0.6662
  0.5902  0.3672  0.2027  0.2203  0.3272  0.2913  0.2913  0.2685  0.2685

 Free energy of the ion-electron system (eV)
  ---------------------------------------------------
  alpha Z        PSCENC =        11.60603708
  Ewald energy   TEWEN  =     10865.34253298
  -Hartree energ DENC   =    -19527.90819340
  -exchange      EXHF   =         0.00000000
  -V(xc)+E(xc)   XCENC  =      -331.79266071
  PAW double counting   =      9909.01766123    -9234.22612083
  entropy T*S    EENTRO =         0.00000000
  eigenvalues    EBANDS =      -639.50489388
  atomic energy  EATOM  =      8906.56515536
  ---------------------------------------------------
  free energy    TOTEN  =       -40.90048217 eV

  energy without entropy =      -40.90048217  energy(sigma->0) =      -40.90048217


--------------------------------------------------------------------------------------------------------




----------------------------------------- Iteration    1(  25)  ---------------------------------------


    POTLOK:  cpu time    0.23: real time    0.23
    SETDIJ:  cpu time    0.00: real time    0.01
     EDDAV:  cpu time    0.59: real time    0.59
       DOS:  cpu time    0.00: real time    0.00
    CHARGE:  cpu time    0.05: real time    0.05
    MIXING:  cpu time    0.01: real time    0.01
    --------------------------------------------
      LOOP:  cpu time    0.88: real time    0.89

 eigenvalue-minimisations  :   256
 total energy-change (2. order) :-0.7469285E-02  (-0.3902017E-04)
 number of electron     110.0000009 magnetization       6.0040468
 augmentation part       46.9992993 magnetization       3.1587888

 Broyden mixing:
  rms(total) = 0.21876E-02    rms(broyden)= 0.21762E-02
  rms(prec ) = 0.27968E-02
  weight for this iteration     100.00

 eigenvalues of (default mixing * dielectric matrix)
  average eigenvalue GAMMA=   1.0640
  5.7161  2.6012  2.6012  1.7274  1.0933  1.0933  0.8617  0.8617  0.6989  0.6856
  0.6856  0.4109  0.3689  0.2027  0.2203  0.3292  0.2919  0.2919  0.2687  0.2687

 Free energy of the ion-electron system (eV)
  ---------------------------------------------------
  alpha Z        PSCENC =        11.60603708
  Ewald energy   TEWEN  =     10865.34253298
  -Hartree energ DENC   =    -19527.92525267
  -exchange      EXHF   =         0.00000000
  -V(xc)+E(xc)   XCENC  =      -331.80295336
  PAW double counting   =      9909.47735513    -9234.68403046
  entropy T*S    EENTRO =        -0.00000000
  eigenvalues    EBANDS =      -639.48679552
  atomic energy  EATOM  =      8906.56515536
  ---------------------------------------------------
  free energy    TOTEN  =       -40.90795146 eV

  energy without entropy =      -40.90795146  energy(sigma->0) =      -40.90795146


--------------------------------------------------------------------------------------------------------




----------------------------------------- Iteration    1(  26)  ---------------------------------------


    POTLOK:  cpu time    0.22: real time    0.23
    SETDIJ:  cpu time    0.01: real time    0.01
     EDDAV:  cpu time    0.56: real time    0.57
       DOS:  cpu time    0.00: real time    0.00
    CHARGE:  cpu time    0.05: real time    0.05
    MIXING:  cpu time    0.02: real time    0.01
    --------------------------------------------
      LOOP:  cpu time    0.86: real time    1.45

 eigenvalue-minimisations  :   240
 total energy-change (2. order) :-0.1771009E-02  (-0.1777318E-04)
 number of electron     110.0000009 magnetization       5.9993687
 augmentation part       46.9994385 magnetization       3.1548046

 Broyden mixing:
  rms(total) = 0.12431E-02    rms(broyden)= 0.12377E-02
  rms(prec ) = 0.17296E-02
  weight for this iteration     100.00

 eigenvalues of (default mixing * dielectric matrix)
  average eigenvalue GAMMA=   1.0915
  5.9959  3.0621  2.4541  1.8967  1.1280  1.1280  0.9136  0.8374  0.8374  0.7331
  0.7331  0.5988  0.3675  0.3675  0.2027  0.2203  0.3260  0.2915  0.2915  0.2685
  0.2685

 Free energy of the ion-electron system (eV)
  ---------------------------------------------------
  alpha Z        PSCENC =        11.60603708
  Ewald energy   TEWEN  =     10865.34253298
  -Hartree energ DENC   =    -19527.92836474
  -exchange      EXHF   =         0.00000000
  -V(xc)+E(xc)   XCENC  =      -331.80626596
  PAW double counting   =      9909.74454831    -9234.94940470
  entropy T*S    EENTRO =         0.00000000
  eigenvalues    EBANDS =      -639.48396079
  atomic energy  EATOM  =      8906.56515536
  ---------------------------------------------------
  free energy    TOTEN  =       -40.90972246 eV

  energy without entropy =      -40.90972246  energy(sigma->0) =      -40.90972246


--------------------------------------------------------------------------------------------------------




----------------------------------------- Iteration    1(  27)  ---------------------------------------


    POTLOK:  cpu time    0.22: real time    0.23
    SETDIJ:  cpu time    0.01: real time    0.01
     EDDAV:  cpu time    0.52: real time    0.52
       DOS:  cpu time    0.00: real time    0.00
    CHARGE:  cpu time    0.05: real time    0.05
    MIXING:  cpu time    0.02: real time    0.01
    --------------------------------------------
      LOOP:  cpu time    0.82: real time    0.82

 eigenvalue-minimisations  :   208
 total energy-change (2. order) :-0.3911275E-03  (-0.6850433E-05)
 number of electron     110.0000009 magnetization       5.9978736
 augmentation part       46.9993691 magnetization       3.1537530

 Broyden mixing:
  rms(total) = 0.74983E-03    rms(broyden)= 0.74776E-03
  rms(prec ) = 0.11570E-02
  weight for this iteration     100.00

 eigenvalues of (default mixing * dielectric matrix)
  average eigenvalue GAMMA=   1.0927
  6.0897  3.3329  2.1681  2.1681  1.1586  1.1034  1.1034  0.8395  0.8395  0.7106
  0.7106  0.6079  0.6079  0.2027  0.3674  0.3653  0.2203  0.3235  0.2915  0.2915
  0.2685  0.2685

 Free energy of the ion-electron system (eV)
  ---------------------------------------------------
  alpha Z        PSCENC =        11.60603708
  Ewald energy   TEWEN  =     10865.34253298
  -Hartree energ DENC   =    -19527.96027593
  -exchange      EXHF   =         0.00000000
  -V(xc)+E(xc)   XCENC  =      -331.80712602
  PAW double counting   =      9909.84534957    -9235.04968651
  entropy T*S    EENTRO =         0.00000000
  eigenvalues    EBANDS =      -639.45210012
  atomic energy  EATOM  =      8906.56515536
  ---------------------------------------------------
  free energy    TOTEN  =       -40.91011359 eV

  energy without entropy =      -40.91011359  energy(sigma->0) =      -40.91011359


--------------------------------------------------------------------------------------------------------




----------------------------------------- Iteration    1(  28)  ---------------------------------------


    POTLOK:  cpu time    0.23: real time    0.23
    SETDIJ:  cpu time    0.00: real time    0.01
     EDDAV:  cpu time    0.50: real time    0.50
       DOS:  cpu time    0.00: real time    0.00
    CHARGE:  cpu time    0.05: real time    0.05
    MIXING:  cpu time    0.02: real time    0.02
    --------------------------------------------
      LOOP:  cpu time    0.80: real time    0.80

 eigenvalue-minimisations  :   200
 total energy-change (2. order) :-0.5608105E-03  (-0.7297696E-05)
 number of electron     110.0000009 magnetization       5.9970018
 augmentation part       46.9993739 magnetization       3.1530262

 Broyden mixing:
  rms(total) = 0.80639E-03    rms(broyden)= 0.80538E-03
  rms(prec ) = 0.10628E-02
  weight for this iteration     100.00

 eigenvalues of (default mixing * dielectric matrix)
  average eigenvalue GAMMA=   1.0910
  6.1328  3.4371  2.1962  2.1962  1.1084  1.1084  1.1646  0.9830  0.8415  0.8415
  0.7829  0.6719  0.6155  0.4232  0.2027  0.2203  0.3703  0.3541  0.3230  0.2914
  0.2914  0.2685  0.2685

 Free energy of the ion-electron system (eV)
  ---------------------------------------------------
  alpha Z        PSCENC =        11.60603708
  Ewald energy   TEWEN  =     10865.34253298
  -Hartree energ DENC   =    -19527.97403202
  -exchange      EXHF   =         0.00000000
  -V(xc)+E(xc)   XCENC  =      -331.80810344
  PAW double counting   =      9909.77376286    -9234.97785421
  entropy T*S    EENTRO =         0.00000000
  eigenvalues    EBANDS =      -639.43817300
  atomic energy  EATOM  =      8906.56515536
  ---------------------------------------------------
  free energy    TOTEN  =       -40.91067440 eV

  energy without entropy =      -40.91067440  energy(sigma->0) =      -40.91067440


--------------------------------------------------------------------------------------------------------




----------------------------------------- Iteration    1(  29)  ---------------------------------------


    POTLOK:  cpu time    0.22: real time    0.23
    SETDIJ:  cpu time    0.01: real time    0.01
     EDDAV:  cpu time    0.52: real time    0.52
       DOS:  cpu time    0.00: real time    0.00
    CHARGE:  cpu time    0.05: real time    0.05
    MIXING:  cpu time    0.02: real time    0.02
    --------------------------------------------
      LOOP:  cpu time    0.82: real time    2.57

 eigenvalue-minimisations  :   208
 total energy-change (2. order) :-0.7314298E-03  (-0.4996395E-05)
 number of electron     110.0000009 magnetization       5.9970365
 augmentation part       46.9993836 magnetization       3.1532041

 Broyden mixing:
  rms(total) = 0.57000E-03    rms(broyden)= 0.56874E-03
  rms(prec ) = 0.73763E-03
  weight for this iteration     100.00

 eigenvalues of (default mixing * dielectric matrix)
  average eigenvalue GAMMA=   1.1179
  6.1853  3.7308  2.3374  2.3374  1.7036  1.1352  1.1352  0.8444  0.8444  0.8477
  0.8477  0.7026  0.6197  0.6197  0.2027  0.2203  0.3754  0.3668  0.2685  0.2685
  0.2915  0.2915  0.3210  0.3330

 Free energy of the ion-electron system (eV)
  ---------------------------------------------------
  alpha Z        PSCENC =        11.60603708
  Ewald energy   TEWEN  =     10865.34253298
  -Hartree energ DENC   =    -19528.00340924
  -exchange      EXHF   =         0.00000000
  -V(xc)+E(xc)   XCENC  =      -331.80882142
  PAW double counting   =      9909.70262406    -9234.90733184
  entropy T*S    EENTRO =         0.00000000
  eigenvalues    EBANDS =      -639.40819281
  atomic energy  EATOM  =      8906.56515536
  ---------------------------------------------------
  free energy    TOTEN  =       -40.91140583 eV

  energy without entropy =      -40.91140583  energy(sigma->0) =      -40.91140583


--------------------------------------------------------------------------------------------------------




----------------------------------------- Iteration    1(  30)  ---------------------------------------


    POTLOK:  cpu time    0.22: real time    0.23
    SETDIJ:  cpu time    0.01: real time    0.01
     EDDAV:  cpu time    0.52: real time    0.52
       DOS:  cpu time    0.00: real time    0.00
    CHARGE:  cpu time    0.05: real time    0.05
    MIXING:  cpu time    0.02: real time    0.02
    --------------------------------------------
      LOOP:  cpu time    0.82: real time    0.82

 eigenvalue-minimisations  :   208
 total energy-change (2. order) :-0.5776443E-03  (-0.3827011E-05)
 number of electron     110.0000009 magnetization       5.9976349
 augmentation part       46.9994683 magnetization       3.1538264

 Broyden mixing:
  rms(total) = 0.31119E-03    rms(broyden)= 0.31057E-03
  rms(prec ) = 0.41999E-03
  weight for this iteration     100.00

 eigenvalues of (default mixing * dielectric matrix)
  average eigenvalue GAMMA=   1.1397
  6.2366  4.0408  2.4247  2.4247  1.9817  1.1419  1.1419  0.9185  0.9185  0.8464
  0.8464  0.7138  0.7138  0.6056  0.6056  0.2027  0.2203  0.3737  0.3683  0.2685
  0.2685  0.2914  0.2914  0.3265  0.3193

 Free energy of the ion-electron system (eV)
  ---------------------------------------------------
  alpha Z        PSCENC =        11.60603708
  Ewald energy   TEWEN  =     10865.34253298
  -Hartree energ DENC   =    -19528.01732887
  -exchange      EXHF   =         0.00000000
  -V(xc)+E(xc)   XCENC  =      -331.80960717
  PAW double counting   =      9909.60478110    -9234.80989056
  entropy T*S    EENTRO =         0.00000000
  eigenvalues    EBANDS =      -639.39366338
  atomic energy  EATOM  =      8906.56515536
  ---------------------------------------------------
  free energy    TOTEN  =       -40.91198348 eV

  energy without entropy =      -40.91198348  energy(sigma->0) =      -40.91198348


--------------------------------------------------------------------------------------------------------




----------------------------------------- Iteration    1(  31)  ---------------------------------------


    POTLOK:  cpu time    0.23: real time    0.23
    SETDIJ:  cpu time    0.01: real time    0.01
     EDDAV:  cpu time    0.49: real time    0.49
       DOS:  cpu time    0.00: real time    0.00
    CHARGE:  cpu time    0.05: real time    0.05
    MIXING:  cpu time    0.02: real time    0.02
    --------------------------------------------
      LOOP:  cpu time    0.79: real time    0.82

 eigenvalue-minimisations  :   192
 total energy-change (2. order) :-0.5426111E-03  (-0.2888637E-05)
 number of electron     110.0000009 magnetization       5.9983128
 augmentation part       46.9994928 magnetization       3.1544719

 Broyden mixing:
  rms(total) = 0.21331E-03    rms(broyden)= 0.21297E-03
  rms(prec ) = 0.28214E-03
  weight for this iteration     100.00

 eigenvalues of (default mixing * dielectric matrix)
  average eigenvalue GAMMA=   1.1677
  6.3341  4.5392  2.7274  2.2652  2.2652  1.1157  1.1157  1.0063  1.0063  0.8473
  0.8473  0.8365  0.6835  0.6247  0.6073  0.6073  0.2027  0.2203  0.3742  0.3674
  0.2685  0.2685  0.2914  0.2914  0.3276  0.3190

 Free energy of the ion-electron system (eV)
  ---------------------------------------------------
  alpha Z        PSCENC =        11.60603708
  Ewald energy   TEWEN  =     10865.34253298
  -Hartree energ DENC   =    -19528.03420497
  -exchange      EXHF   =         0.00000000
  -V(xc)+E(xc)   XCENC  =      -331.81019836
  PAW double counting   =      9909.56258832    -9234.76783765
  entropy T*S    EENTRO =         0.00000000
  eigenvalues    EBANDS =      -639.37659886
  atomic energy  EATOM  =      8906.56515536
  ---------------------------------------------------
  free energy    TOTEN  =       -40.91252609 eV

  energy without entropy =      -40.91252609  energy(sigma->0) =      -40.91252609


--------------------------------------------------------------------------------------------------------




----------------------------------------- Iteration    1(  32)  ---------------------------------------


    POTLOK:  cpu time    0.22: real time    0.23
    SETDIJ:  cpu time    0.01: real time    0.01
     EDDAV:  cpu time    0.52: real time    0.52
       DOS:  cpu time    0.00: real time    0.00
    CHARGE:  cpu time    0.05: real time    0.05
    MIXING:  cpu time    0.02: real time    0.02
    --------------------------------------------
      LOOP:  cpu time    0.82: real time    0.82

 eigenvalue-minimisations  :   208
 total energy-change (2. order) :-0.2858466E-03  (-0.1816623E-05)
 number of electron     110.0000009 magnetization       5.9988772
 augmentation part       46.9994830 magnetization       3.1549899

 Broyden mixing:
  rms(total) = 0.12214E-03    rms(broyden)= 0.12172E-03
  rms(prec ) = 0.17004E-03
  weight for this iteration     100.00

 eigenvalues of (default mixing * dielectric matrix)
  average eigenvalue GAMMA=   1.2178
  6.5340  5.2384  2.9655  2.3641  2.3641  1.3821  1.1283  1.1283  0.9682  0.8520
  0.8520  0.8552  0.8552  0.6569  0.6569  0.5730  0.5730  0.2027  0.2203  0.3747
  0.3677  0.2685  0.2685  0.2914  0.2914  0.3276  0.3194

 Free energy of the ion-electron system (eV)
  ---------------------------------------------------
  alpha Z        PSCENC =        11.60603708
  Ewald energy   TEWEN  =     10865.34253298
  -Hartree energ DENC   =    -19528.04423805
  -exchange      EXHF   =         0.00000000
  -V(xc)+E(xc)   XCENC  =      -331.81060934
  PAW double counting   =      9909.52479396    -9234.72979600
  entropy T*S    EENTRO =         0.00000000
  eigenvalues    EBANDS =      -639.36668792
  atomic energy  EATOM  =      8906.56515536
  ---------------------------------------------------
  free energy    TOTEN  =       -40.91281193 eV

  energy without entropy =      -40.91281193  energy(sigma->0) =      -40.91281193


--------------------------------------------------------------------------------------------------------




----------------------------------------- Iteration    1(  33)  ---------------------------------------


    POTLOK:  cpu time    0.22: real time    0.23
    SETDIJ:  cpu time    0.01: real time    0.01
     EDDAV:  cpu time    0.50: real time    0.50
       DOS:  cpu time    0.00: real time    0.00
    CHARGE:  cpu time    0.05: real time    0.05
    MIXING:  cpu time    0.02: real time    0.02
    --------------------------------------------
      LOOP:  cpu time    0.81: real time    0.81

 eigenvalue-minimisations  :   200
 total energy-change (2. order) :-0.1191309E-03  (-0.1034995E-05)
 number of electron     110.0000009 magnetization       5.9993893
 augmentation part       46.9995277 magnetization       3.1554782

 Broyden mixing:
  rms(total) = 0.77761E-04    rms(broyden)= 0.77638E-04
  rms(prec ) = 0.11375E-03
  weight for this iteration     100.00

 eigenvalues of (default mixing * dielectric matrix)
  average eigenvalue GAMMA=   1.2554
  6.7862  5.7514  3.1344  2.4545  2.4545  1.5440  1.1262  1.1262  1.0240  1.0240
  0.8421  0.8421  0.8954  0.7267  0.7267  0.5919  0.5919  0.5771  0.2027  0.2203
  0.3748  0.3676  0.2685  0.2685  0.2914  0.2914  0.3275  0.3193

 Free energy of the ion-electron system (eV)
  ---------------------------------------------------
  alpha Z        PSCENC =        11.60603708
  Ewald energy   TEWEN  =     10865.34253298
  -Hartree energ DENC   =    -19528.04891751
  -exchange      EXHF   =         0.00000000
  -V(xc)+E(xc)   XCENC  =      -331.81085107
[...]
     10      -7.3239      1.00000
     11      -7.3127      1.00000
     12      -7.1915      1.00000
     13      -7.0879      1.00000
     14      -7.0446      1.00000
     15      -6.9822      1.00000
     16      -6.8757      1.00000
     17      -6.8024      1.00000
     18      -6.7009      1.00000
     19      -6.6136      1.00000
     20      -6.5071      1.00000
     21      -6.4798      1.00000
     22      -6.3639      1.00000
     23      -6.2698      1.00000
     24      -6.2278      1.00000
     25      -6.0910      1.00000
     26      -5.9496      1.00000
     27      -5.7686      1.00000
     28      -5.7571      1.00000
     29      -5.6058      1.00000
     30      -5.5532      1.00000
     31      -5.4497      1.00000
     32      -5.4243      1.00000
     33      -5.3480      1.00000
     34      -5.2975      1.00000
     35      -5.2455      1.00000
     36      -5.1839      1.00000
     37      -5.1514      1.00000
     38      -5.1072      1.00000
     39      -5.0807      1.00000
     40      -5.0471      1.00000
     41      -5.0188      1.00000
     42      -4.9615      1.00000
     43      -4.9323      1.00000
     44      -4.9051      1.00000
     45      -4.8991      1.00000
     46      -4.8773      1.00000
     47      -4.7426      1.00000
     48      -4.6707      1.00000
     49      -4.6284      1.00000
     50      -4.5751      1.00000
     51      -4.5362      1.00000
     52      -4.4968      1.00000
     53      -4.4758      1.00000
     54      -4.4505      1.00000
     55      -4.4276      1.00000
     56      -4.3889      1.00000
     57      -4.2900      1.00000
     58      -4.2545      1.00000
     59      -3.6454      0.00000
     60      -3.1694      0.00000
     61      -2.6041      0.00000
     62      -2.3025      0.00000
     63      -1.9774      0.00000
     64      -1.8332      0.00000
     65      -1.2433      0.00000
     66      -1.1542      0.00000
     67      -0.6789      0.00000
     68      -0.4001      0.00000
     69      -0.3054      0.00000
     70      -0.2232      0.00000
     71       0.1639      0.00000
     72       0.2265      0.00000

 spin component 2

 k-point     1 :       0.0000    0.0000    0.0000
  band No.  band energies     occupation 
      1      -8.3826      1.00000
      2      -7.9016      1.00000
      3      -7.7960      1.00000
      4      -7.7314      1.00000
      5      -7.5584      1.00000
      6      -7.5457      1.00000
      7      -7.4208      1.00000
      8      -7.1559      1.00000
      9      -7.1204      1.00000
     10      -6.9999      1.00000
     11      -6.9820      1.00000
     12      -6.8229      1.00000
     13      -6.7948      1.00000
     14      -6.7275      1.00000
     15      -6.6544      1.00000
     16      -6.5328      1.00000
     17      -6.4871      1.00000
     18      -6.3504      1.00000
     19      -6.2557      1.00000
     20      -6.1879      1.00000
     21      -6.1068      1.00000
     22      -6.0242      1.00000
     23      -5.9311      1.00000
     24      -5.8675      1.00000
     25      -5.7377      1.00000
     26      -5.6523      1.00000
     27      -5.4686      1.00000
     28      -5.3973      1.00000
     29      -5.3001      1.00000
     30      -5.2839      1.00000
     31      -5.1574      1.00000
     32      -5.1206      1.00000
     33      -5.0642      1.00000
     34      -4.9829      1.00000
     35      -4.9764      1.00000
     36      -4.9054      1.00000
     37      -4.8674      1.00000
     38      -4.8138      1.00000
     39      -4.7612      1.00000
     40      -4.7406      1.00000
     41      -4.7052      1.00000
     42      -4.6543      1.00000
     43      -4.6436      1.00000
     44      -4.5749      1.00000
     45      -4.5359      1.00000
     46      -4.5027      1.00000
     47      -4.4106      1.00000
     48      -4.3283      1.00000
     49      -4.2893      1.00000
     50      -4.2386      1.00000
     51      -4.1738      1.00000
     52      -4.1586      1.00000
     53      -4.0025      0.00000
     54      -3.9750      0.00000
     55      -3.9462      0.00000
     56      -3.9293      0.00000
     57      -3.8868      0.00000
     58      -3.7998      0.00000
     59      -3.4600      0.00000
     60      -2.9685      0.00000
     61      -2.3915      0.00000
     62      -2.0716      0.00000
     63      -1.8114      0.00000
     64      -1.6136      0.00000
     65      -1.0845      0.00000
     66      -1.0331      0.00000
     67      -0.5434      0.00000
     68      -0.2550      0.00000
     69      -0.1256      0.00000
     70      -0.1132      0.00000
     71       0.2678      0.00000
     72       0.3499      0.00000


--------------------------------------------------------------------------------------------------------


 soft charge-density along one line, spin component           1
         0         1         2         3         4         5         6         7         8         9
 total charge-density along one line
 
 soft charge-density along one line, spin component           2
         0         1         2         3         4         5         6         7         8         9
 total charge-density along one line
 
 pseudopotential strength for first ion, spin component:           1
 -8.455   0.008   0.025  -0.027   0.026  -8.428   0.008   0.024
  0.008  -8.514  -0.017   0.042   0.025   0.008  -8.484  -0.017
  0.025  -0.017  -8.542  -0.016   0.002   0.024  -0.017  -8.511
 -0.027   0.042  -0.016  -8.566   0.003  -0.025   0.040  -0.015
  0.026   0.025   0.002   0.003  -8.508   0.024   0.024   0.001
 -8.428   0.008   0.024  -0.025   0.024  -8.378   0.007   0.023
  0.008  -8.484  -0.017   0.040   0.024   0.007  -8.432  -0.016
  0.024  -0.017  -8.511  -0.015   0.001   0.023  -0.016  -8.458
 -0.025   0.040  -0.015  -8.534   0.003  -0.024   0.039  -0.015
  0.024   0.024   0.001   0.003  -8.479   0.023   0.023   0.001
 -0.002   0.015   0.014   0.000   0.007  -0.002   0.015   0.014
 -0.004   0.025   0.024   0.000   0.012  -0.004   0.025   0.023
  0.020   0.023  -0.008   0.000  -0.015   0.019   0.022  -0.008
  0.000   0.015   0.027   0.020   0.000   0.000   0.014   0.026
  0.015   0.000  -0.011   0.023   0.020   0.014   0.000  -0.011
  0.022   0.024  -0.009   0.001  -0.016   0.021   0.024  -0.009
  0.001   0.016   0.029   0.022   0.000   0.001   0.016   0.028
  0.016   0.001  -0.013   0.025   0.022   0.016   0.001  -0.012
 pseudopotential strength for first ion, spin component:           2
 -8.318  -0.008  -0.001  -0.020  -0.000  -8.296  -0.007  -0.001
 -0.008  -8.334  -0.008  -0.005   0.019  -0.007  -8.312  -0.008
 -0.001  -0.008  -8.361  -0.000   0.010  -0.001  -0.008  -8.338
 -0.020  -0.005  -0.000  -8.350  -0.004  -0.019  -0.005  -0.000
 -0.000   0.019   0.010  -0.004  -8.307  -0.000   0.018   0.009
 -8.296  -0.007  -0.001  -0.019  -0.000  -8.253  -0.007  -0.001
 -0.007  -8.312  -0.008  -0.005   0.018  -0.007  -8.268  -0.007
 -0.001  -0.008  -8.338  -0.000   0.009  -0.001  -0.007  -8.293
 -0.019  -0.005  -0.000  -8.328  -0.004  -0.018  -0.004  -0.000
 -0.000   0.018   0.009  -0.004  -8.287  -0.000   0.017   0.009
  0.002   0.011   0.009   0.005   0.005   0.002   0.010   0.009
  0.003   0.018   0.015   0.009   0.008   0.003   0.018   0.015
  0.022   0.026  -0.010  -0.001  -0.018   0.021   0.025  -0.009
 -0.001   0.016   0.031   0.022  -0.000  -0.001   0.016   0.029
  0.016  -0.001  -0.013   0.026   0.023   0.015  -0.001  -0.013
  0.025   0.030  -0.011  -0.001  -0.020   0.024   0.029  -0.011
 -0.001   0.018   0.035   0.026  -0.000  -0.001   0.018   0.033
  0.018  -0.001  -0.015   0.029   0.027   0.017  -0.001  -0.015
 total augmentation occupancy for first ion, spin component:           1
  2.063   0.096  -0.041   0.115   0.217  -0.561  -0.093   0.190  -0.186  -0.085  -0.192   0.037   0.064  -0.006   0.112   0.020
  0.096   2.031   0.134   0.207  -0.207  -0.095  -0.595  -0.145  -0.055   0.263  -0.603   0.135   0.121   0.118   0.000   0.025
 -0.041   0.134   2.042  -0.007  -0.158   0.194  -0.146  -0.716  -0.065   0.135  -0.242   0.077  -0.013   0.132  -0.060  -0.009
  0.115   0.207  -0.007   1.833   0.210  -0.183  -0.052  -0.064  -0.600  -0.189  -0.305   0.061   0.006   0.067   0.110  -0.001
  0.217  -0.207  -0.158   0.210   1.910  -0.087   0.262   0.136  -0.194  -0.593  -0.270   0.053  -0.055  -0.005   0.119  -0.016
 -0.561  -0.095   0.194  -0.183  -0.087   0.966   0.110  -0.295   0.235   0.004   0.175  -0.036  -0.127   0.022  -0.152   0.016
 -0.093  -0.595  -0.146  -0.052   0.262   0.110   1.013   0.145  -0.028  -0.304   0.400  -0.058  -0.195  -0.151   0.023   0.020
  0.190  -0.145  -0.716  -0.064   0.136  -0.295   0.145   1.215   0.112  -0.128   0.092  -0.006   0.059  -0.230   0.108  -0.008
 -0.186  -0.055  -0.065  -0.600  -0.194   0.235  -0.028   0.112   1.142   0.182   0.194  -0.034   0.016  -0.118  -0.190  -0.000
 -0.085   0.263   0.135  -0.189  -0.593   0.004  -0.304  -0.128   0.182   1.093   0.183  -0.022   0.123   0.008  -0.181  -0.013
 -0.192  -0.603  -0.242  -0.305  -0.270   0.175   0.400   0.092   0.194   0.183   1.607  -0.217  -0.163  -0.235  -0.189   0.012
  0.037   0.135   0.077   0.061   0.053  -0.036  -0.058  -0.006  -0.034  -0.022  -0.217   0.035   0.025   0.031   0.027  -0.001
  0.064   0.121  -0.013   0.006  -0.055  -0.127  -0.195   0.059   0.016   0.123  -0.163   0.025   0.075   0.022   0.007  -0.008
 -0.006   0.118   0.132   0.067  -0.005   0.022  -0.151  -0.230  -0.118   0.008  -0.235   0.031   0.022   0.096   0.007  -0.002
  0.112   0.000  -0.060   0.110   0.119  -0.152   0.023   0.108  -0.190  -0.181  -0.189   0.027   0.007   0.007   0.099  -0.001
  0.020   0.025  -0.009  -0.001  -0.016   0.016   0.020  -0.008  -0.000  -0.013   0.012  -0.001  -0.008  -0.002  -0.001   0.003
 -0.001   0.014   0.029   0.018  -0.002  -0.000   0.014   0.023   0.016   0.001   0.013   0.001  -0.002  -0.010  -0.002   0.000
  0.015  -0.001  -0.013   0.023   0.022   0.014   0.000  -0.009   0.021   0.016   0.015  -0.002  -0.001  -0.002  -0.009   0.000
 total augmentation occupancy for first ion, spin component:           2
  0.141  -0.090  -0.119   0.039  -0.135  -0.047   0.038   0.049  -0.015   0.059  -0.012  -0.017   0.002  -0.007  -0.002   0.002
 -0.090   0.357   0.047  -0.229  -0.030   0.040  -0.143  -0.022   0.100   0.009   0.026   0.019   0.024   0.010  -0.030   0.005
 -0.119   0.047   0.373   0.076   0.025   0.045  -0.020  -0.152  -0.033  -0.007   0.036   0.023  -0.005   0.029  -0.013  -0.003
  0.039  -0.229   0.076   0.547  -0.060  -0.019   0.094  -0.034  -0.226   0.028   0.066  -0.007  -0.012   0.012   0.021  -0.003
 -0.135  -0.030   0.025  -0.060   0.475   0.063   0.011  -0.008   0.033  -0.196  -0.013   0.008  -0.026  -0.014   0.026  -0.007
 -0.047   0.040   0.045  -0.019   0.063  -0.017  -0.011  -0.010   0.008  -0.024   0.011   0.000   0.001   0.001   0.003  -0.001
  0.038  -0.143  -0.020   0.094   0.011  -0.011   0.027   0.010  -0.037  -0.003  -0.019   0.000  -0.006  -0.002   0.011  -0.002
  0.049  -0.022  -0.152  -0.034  -0.008  -0.010   0.010   0.032   0.014   0.001  -0.028  -0.000  -0.001  -0.007   0.004   0.001
 -0.015   0.100  -0.033  -0.226   0.033   0.008  -0.037   0.014   0.058  -0.013  -0.018  -0.001   0.003  -0.004  -0.003   0.001
  0.059   0.009  -0.007   0.028  -0.196  -0.024  -0.003   0.001  -0.013   0.041   0.004  -0.000   0.007   0.007  -0.009   0.003
 -0.012   0.026   0.036   0.066  -0.013   0.011  -0.019  -0.028  -0.018   0.004   0.017   0.004   0.006   0.016  -0.005   0.001
 -0.017   0.019   0.023  -0.007   0.008   0.000   0.000  -0.000  -0.001  -0.000   0.004   0.002  -0.000  -0.002  -0.000  -0.000
  0.002   0.024  -0.005  -0.012  -0.026   0.001  -0.006  -0.001   0.003   0.007   0.006  -0.000   0.001   0.001  -0.003   0.001
 -0.007   0.010   0.029   0.012  -0.014   0.001  -0.002  -0.007  -0.004   0.007   0.016  -0.002   0.001   0.000  -0.003  -0.000
 -0.002  -0.030  -0.013   0.021   0.026   0.003   0.011   0.004  -0.003  -0.009  -0.005  -0.000  -0.003  -0.003   0.003  -0.001
  0.002   0.005  -0.003  -0.003  -0.007  -0.001  -0.002   0.001   0.001   0.003   0.001  -0.000   0.001  -0.000  -0.001   0.000
 -0.003   0.002   0.009   0.006  -0.000   0.001  -0.001  -0.004  -0.003   0.000   0.001   0.001  -0.000   0.001  -0.000  -0.000
  0.001  -0.004  -0.002   0.008   0.004  -0.001   0.002   0.001  -0.003  -0.002   0.001  -0.001  -0.000  -0.000   0.001  -0.000


------------------------ aborting loop because EDIFF is reached ----------------------------------------


    CHARGE:  cpu time    0.05: real time    0.05
    FORLOC:  cpu time    0.00: real time    0.01
    FORNL :  cpu time    0.24: real time    0.24
    STRESS:  cpu time    0.30: real time    0.30
    FORCOR:  cpu time    0.23: real time    0.23
    FORHAR:  cpu time    0.03: real time    0.03
    MIXING:  cpu time    0.01: real time    0.01
    OFIELD:  cpu time    0.00: real time    0.00

  FORCE on cell =-STRESS in cart. coord.  units (eV):
  Direction    XX          YY          ZZ          XY          YZ          ZX
  --------------------------------------------------------------------------------------
  Alpha Z    11.60604    11.60604    11.60604
  Ewald    5481.27768  3719.27246  1863.78410  1215.14396  1268.17775  -396.95200
  Hartree  8119.16575  6602.49180  5000.05422  1029.72476  1053.16802  -342.00465
  E(xc)    -573.98547  -574.95883  -576.09369     0.81904     1.09194    -0.17587
  Local  -15269.68665-11998.54569 -8549.40462 -2237.73639 -2310.70434   738.24269
  n-local   -93.01718   -96.59257  -102.05879     2.71745     2.67869    -1.75614
  augment   811.92289   816.08736   821.84863    -3.78345    -5.09908     1.08460
  Kinetic  1509.13046  1517.11588  1526.73384    -6.91596    -9.25514     1.58527
  Fock        0.00000     0.00000     0.00000     0.00000     0.00000     0.00000
  -------------------------------------------------------------------------------------
  Total      -3.58648    -3.52355    -3.53027    -0.03060     0.05784     0.02389
  in kB      -0.84566    -0.83082    -0.83241    -0.00722     0.01364     0.00563
  external pressure =       -0.84 kB  Pullay stress =        0.00 kB


 VOLUME and BASIS-vectors are now :
 -----------------------------------------------------------------------------
  energy-cutoff  :      250.93
  volume of cell :     6794.91
      direct lattice vectors                 reciprocal lattice vectors
    18.940640100  0.000000000  0.000000000     0.052796526  0.000000000  0.000000000
     0.000000000 18.940640100  0.000000000     0.000000000  0.052796526  0.000000000
     0.000000000  0.000000000 18.940640100     0.000000000  0.000000000  0.052796526

  length of vectors
    18.940640100 18.940640100 18.940640100     0.052796526  0.052796526  0.052796526


 FORCES acting on ions
    electron-ion (+dipol)            ewald-force                    non-local-force                 convergence-correction
 -----------------------------------------------------------------------------------------------
   -.480E+03 -.496E+03 -.563E+03   0.476E+03 0.492E+03 0.558E+03   0.412E+01 0.335E+01 0.534E+01   -.601E-01 0.597E-01 -.101E-01
   0.617E+03 -.354E+03 0.394E+03   -.615E+03 0.351E+03 -.391E+03   -.218E+01 0.285E+01 -.278E+01   0.729E-01 0.745E-01 0.277E-02
   -.267E+02 -.815E+03 0.375E+03   0.271E+02 0.810E+03 -.372E+03   -.390E+00 0.492E+01 -.337E+01   0.221E-01 0.220E-02 -.139E-01
   -.849E+03 -.182E+03 0.184E+03   0.843E+03 0.180E+03 -.183E+03   0.596E+01 0.149E+01 -.141E+01   -.262E-01 0.573E-01 0.375E-01
   -.594E+03 0.665E+03 0.115E+03   0.589E+03 -.659E+03 -.115E+03   0.473E+01 -.593E+01 0.103E+00   0.151E-01 -.883E-02 -.140E-01
   0.117E+03 0.798E+03 0.220E+03   -.117E+03 -.793E+03 -.218E+03   0.579E-01 -.476E+01 -.119E+01   -.408E-01 0.434E-01 -.194E-01
   -.120E+03 0.120E+02 0.884E+03   0.121E+03 -.127E+02 -.878E+03   -.464E+00 0.593E+00 -.570E+01   -.462E-01 0.120E+00 -.174E-01
   -.272E+03 0.277E+03 -.560E+03   0.271E+03 -.275E+03 0.558E+03   0.643E+00 -.155E+01 0.215E+01   0.272E-01 0.760E-01 -.257E-02
   0.394E+03 -.549E+03 -.596E+03   -.391E+03 0.546E+03 0.592E+03   -.348E+01 0.331E+01 0.418E+01   0.309E-01 0.416E-01 -.415E-01
   0.475E+03 0.307E+03 -.677E+03   -.473E+03 -.305E+03 0.671E+03   -.184E+01 -.194E+01 0.619E+01   0.149E-01 0.347E-01 -.592E-02
   0.737E+03 0.338E+03 0.224E+03   -.730E+03 -.335E+03 -.221E+03   -.676E+01 -.279E+01 -.300E+01   0.557E-02 0.184E-01 -.473E-02
 -----------------------------------------------------------------------------------------------
   -.392E+00 -.658E-01 -.400E+00   -.455E-12 0.114E-12 0.199E-12   0.381E+00 -.454E+00 0.499E+00   0.153E-01 0.519E+00 -.893E-01
 
 
 POSITION                                       TOTAL-FORCE (eV/Angst)
 -----------------------------------------------------------------------------------
     11.25074     11.44776     11.10178        -0.008343      0.004812     -0.004131
      7.80917      9.97195      8.78668        -0.013140     -0.006114      0.007764
      9.91507     11.63277      8.84487         0.000067      0.002087      0.003512
     12.19359     10.14804      8.97644        -0.012890     -0.012668      0.017144
     11.50244      7.57002      8.82816        -0.013159      0.007863     -0.015643
      8.83892      7.38798      8.84715         0.023735     -0.003004     -0.004938
     10.10715      9.32064      7.50293         0.016071     -0.008339      0.007496
     10.11702      9.16962     10.39125         0.006359      0.003013      0.001658
      8.56170     11.11881     11.08873         0.001568     -0.006047     -0.010731
      7.59583      8.51683     10.98294         0.018522      0.012587      0.008037
      6.28189      7.88910      8.82261        -0.018790      0.005809     -0.010169
 -----------------------------------------------------------------------------------
    total drift:                                0.004463     -0.000567      0.009515


--------------------------------------------------------------------------------------------------------



  FREE ENERGIE OF THE ION-ELECTRON SYSTEM (eV)
  ---------------------------------------------------
  free  energy   TOTEN  =       -40.98324760 eV

  energy  without entropy=      -40.98324760  energy(sigma->0) =      -40.98324760
 
 d Force = 0.1500802E-04[-0.675E-04, 0.975E-04]  d Energy = 0.4108226E-04-0.261E-04
 d Force =-0.3026107E-01[-0.304E-01,-0.301E-01]  d Ewald  =-0.3026111E-01 0.460E-07


--------------------------------------------------------------------------------------------------------


    POTLOK:  cpu time    0.24: real time    0.24


--------------------------------------------------------------------------------------------------------




--------------------------------------------------------------------------------------------------------


  
 reached required accuracy - stopping structural energy minimisation
     LOOP+:  cpu time    3.78: real time    5.61
    4ORBIT:  cpu time    0.00: real time    0.00

 total amount of memory used by VASP on root node    53695. kBytes
========================================================================

   base      :      30000. kBytes
   nonl-proj :       1228. kBytes
   fftplans  :       5763. kBytes
   grid      :      14451. kBytes
   one-center:         31. kBytes
   wavefun   :       2222. kBytes
 
  
  
 General timing and accounting informations for this job:
 ========================================================
  
                  Total CPU time used (sec):      117.487
                            User time (sec):      115.375
                          System time (sec):        2.112
                         Elapsed time (sec):      138.453
  
                   Maximum memory used (kb):       61420.
                   Average memory used (kb):           0.
  
                          Minor page faults:       382593
                          Major page faults:            0
                 Voluntary context switches:         4499
