27
Energy = -55.52695458 eV
Ag 12.625925480246881 13.384684061701883 11.830209199180027
Ag 13.704055919039972 8.494642961134652 13.488973184117198
Ag 14.254246079750954 11.477651995810023 13.891143293509396
Ag 12.200169718057584 10.076340129459465 15.232381302708516
Ag 11.676197610687154 12.686408017854909 14.34528601104814
Ag 13.478043111199032 11.666670444287044 9.884545199813541
Ag 14.23110034226996 9.183489398682742 10.795806307446266
Ag 13.33414193082994 14.316539308140932 9.160157225366719
Ag 9.768106904301224 13.113682476417175 12.256965931203236
Ag 12.258047873312693 10.57806649775197 12.319036734266659
Ag 9.788069771867102 10.708587271844571 13.827619060845107
Ag 10.854708055056276 8.034891409587214 13.88369197550504
Ag 10.771213556149963 13.507330753920485 9.667770773959457
Ag 9.812400358069272 6.199805493788945 11.933654846926112
Ag 11.8468047447669 7.930762001551073 11.295152481257867
Ag 10.116485269253541 10.803070522341955 10.61543306793219
Ag 11.416981089192538 14.77924979275417 7.220224469331825
Ag 12.085595601380545 9.505545668944606 8.928685685124474
Ag 9.289094677363394 13.047849047213766 7.2163081919734235
Ag 7.612552920216085 11.307806334348346 12.167475569816474
Ag 8.098551714695539 12.702911384098424 9.784926867403767
Ag 8.812726648079728 8.74477763802704 12.076757882809062
Ag 11.930529694433778 11.994188639898505 7.5682939532899045
Ag 9.722951556193495 8.012932583048636 9.520208490417327
Ag 9.624492873289636 10.336000982667432 7.813155553507907
Ag 7.557163134546244 9.863286885498074 9.706875901325517
Ag 7.037128383694922 11.450313317170057 7.476745857859542
