  38  38   0   0
  0.2700189E+03  0.2172998E-08  0.2172998E-08  0.2172998E-08  0.1000000E-15
  1.000000000000000E-004
  CAR 
 unknown system                          
      2.02626898    -10.04939422  301     -3.38765335      1.00000000
    -10.049  0.0000E+00  0.0000E+00  0.0000E+00  0.0000E+00
    -10.009  0.0000E+00  0.0000E+00  0.0000E+00  0.0000E+00
     -9.969  0.0000E+00  0.0000E+00  0.0000E+00  0.0000E+00
     -9.929  0.0000E+00  0.0000E+00  0.0000E+00  0.0000E+00
     -9.888  0.0000E+00  0.0000E+00  0.0000E+00  0.0000E+00
     -9.848  0.0000E+00  0.0000E+00  0.0000E+00  0.0000E+00
     -9.808  0.0000E+00  0.0000E+00  0.0000E+00  0.0000E+00
     -9.768  0.0000E+00  0.0000E+00  0.0000E+00  0.0000E+00
     -9.727  0.0000E+00  0.0000E+00  0.0000E+00  0.0000E+00
     -9.687  0.0000E+00  0.0000E+00  0.0000E+00  0.0000E+00
     -9.647  0.0000E+00  0.0000E+00  0.0000E+00  0.0000E+00
     -9.607  0.0000E+00  0.0000E+00  0.0000E+00  0.0000E+00
     -9.566  0.0000E+00  0.0000E+00  0.0000E+00  0.0000E+00
     -9.526  0.0000E+00  0.0000E+00  0.0000E+00  0.0000E+00
     -9.486  0.0000E+00  0.0000E+00  0.1000E-02  0.1000E-02
     -9.446  0.0000E+00  0.0000E+00  0.1000E-02  0.1000E-02
     -9.405  0.0000E+00  0.0000E+00  0.1000E-02  0.1000E-02
     -9.365  0.0000E+00  0.0000E+00  0.1000E-02  0.1000E-02
     -9.325  0.0000E+00  0.0000E+00  0.1000E-02  0.1000E-02
     -9.285  0.0000E+00  0.0000E+00  0.1000E-02  0.1000E-02
     -9.244  0.0000E+00  0.0000E+00  0.1000E-02  0.1000E-02
     -9.204  0.0000E+00  0.0000E+00  0.1000E-02  0.1000E-02
     -9.164  0.0000E+00  0.0000E+00  0.1000E-02  0.1000E-02
     -9.124  0.0000E+00  0.0000E+00  0.1000E-02  0.1000E-02
     -9.083  0.0000E+00  0.0000E+00  0.1000E-02  0.1000E-02
     -9.043  0.0000E+00  0.0000E+00  0.1000E-02  0.1000E-02
     -9.003  0.0000E+00  0.0000E+00  0.3000E-02  0.3000E-02
     -8.963  0.0000E+00  0.0000E+00  0.3000E-02  0.3000E-02
     -8.922  0.3435E-02  0.3434E-02  0.4138E-02  0.4138E-02
     -8.882  0.0000E+00  0.0000E+00  0.5000E-02  0.5000E-02
     -8.842  0.4830E-03  0.4823E-03  0.5019E-02  0.5019E-02
     -8.802  0.0000E+00  0.0000E+00  0.7000E-02  0.7000E-02
     -8.761  0.0000E+00  0.0000E+00  0.1000E-01  0.1000E-01
     -8.721  0.0000E+00  0.0000E+00  0.1200E-01  0.1200E-01
     -8.681  0.0000E+00  0.0000E+00  0.1300E-01  0.1300E-01
     -8.641  0.0000E+00  0.0000E+00  0.1600E-01  0.1600E-01
     -8.600  0.0000E+00  0.0000E+00  0.1900E-01  0.1900E-01
     -8.560  0.0000E+00  0.0000E+00  0.2000E-01  0.2000E-01
     -8.520  0.0000E+00  0.0000E+00  0.2200E-01  0.2200E-01
     -8.480  0.0000E+00  0.0000E+00  0.2500E-01  0.2500E-01
     -8.439  0.0000E+00  0.0000E+00  0.2800E-01  0.2800E-01
     -8.399  0.0000E+00  0.0000E+00  0.3200E-01  0.3200E-01
     -8.359  0.2484E-01  0.2484E-01  0.3400E-01  0.3400E-01
     -8.319  0.0000E+00  0.0000E+00  0.3700E-01  0.3700E-01
     -8.278  0.0000E+00  0.0000E+00  0.3900E-01  0.3900E-01
     -8.238  0.0000E+00  0.0000E+00  0.4000E-01  0.4000E-01
     -8.198  0.0000E+00  0.0000E+00  0.4200E-01  0.4200E-01
     -8.158  0.0000E+00  0.0000E+00  0.4400E-01  0.4400E-01
     -8.117  0.0000E+00  0.0000E+00  0.4700E-01  0.4700E-01
     -8.077  0.0000E+00  0.0000E+00  0.4900E-01  0.4900E-01
     -8.037  0.0000E+00  0.0000E+00  0.5200E-01  0.5200E-01
     -7.997  0.4768E-03  0.4770E-03  0.5402E-01  0.5402E-01
     -7.956  0.0000E+00  0.0000E+00  0.5600E-01  0.5600E-01
     -7.916  0.0000E+00  0.0000E+00  0.5900E-01  0.5900E-01
     -7.876  0.0000E+00  0.0000E+00  0.6100E-01  0.6100E-01
     -7.836  0.0000E+00  0.0000E+00  0.6500E-01  0.6500E-01
     -7.795  0.0000E+00  0.0000E+00  0.6700E-01  0.6700E-01
     -7.755  0.0000E+00  0.0000E+00  0.6800E-01  0.6800E-01
     -7.715  0.1322E-02  0.1322E-02  0.7005E-01  0.7005E-01
     -7.675  0.0000E+00  0.0000E+00  0.7200E-01  0.7200E-01
     -7.634  0.0000E+00  0.0000E+00  0.7500E-01  0.7500E-01
     -7.594  0.0000E+00  0.0000E+00  0.7800E-01  0.7800E-01
     -7.554  0.0000E+00  0.0000E+00  0.8000E-01  0.8000E-01
     -7.514  0.0000E+00  0.0000E+00  0.8200E-01  0.8200E-01
     -7.473  0.0000E+00  0.0000E+00  0.8400E-01  0.8400E-01
     -7.433  0.0000E+00  0.0000E+00  0.8700E-01  0.8700E-01
     -7.393  0.0000E+00  0.0000E+00  0.8900E-01  0.8900E-01
     -7.352  0.0000E+00  0.0000E+00  0.9200E-01  0.9200E-01
     -7.312  0.0000E+00  0.0000E+00  0.9400E-01  0.9400E-01
     -7.272  0.0000E+00  0.0000E+00  0.9600E-01  0.9600E-01
     -7.232  0.0000E+00  0.0000E+00  0.9900E-01  0.9900E-01
     -7.191  0.4263E-14  0.4261E-14  0.1010E+00  0.1010E+00
     -7.151  0.3213E-04  0.3212E-04  0.1030E+00  0.1030E+00
     -7.111  0.0000E+00  0.0000E+00  0.1060E+00  0.1060E+00
     -7.071  0.0000E+00  0.0000E+00  0.1090E+00  0.1090E+00
     -7.030  0.2484E-01  0.2484E-01  0.1130E+00  0.1130E+00
     -6.990  0.0000E+00  0.0000E+00  0.1160E+00  0.1160E+00
     -6.950  0.0000E+00  0.0000E+00  0.1190E+00  0.1190E+00
     -6.910  0.0000E+00  0.0000E+00  0.1230E+00  0.1230E+00
     -6.869  0.0000E+00  0.0000E+00  0.1250E+00  0.1250E+00
     -6.829  0.0000E+00  0.0000E+00  0.1300E+00  0.1300E+00
     -6.789  0.0000E+00  0.0000E+00  0.1320E+00  0.1320E+00
     -6.749  0.5476E-02  0.5473E-02  0.1362E+00  0.1362E+00
     -6.708  0.0000E+00  0.0000E+00  0.1400E+00  0.1400E+00
     -6.668  0.0000E+00  0.0000E+00  0.1440E+00  0.1440E+00
     -6.628  0.0000E+00  0.0000E+00  0.1460E+00  0.1460E+00
     -6.588  0.0000E+00  0.0000E+00  0.1520E+00  0.1520E+00
     -6.547  0.0000E+00  0.0000E+00  0.1560E+00  0.1560E+00
     -6.507  0.0000E+00  0.0000E+00  0.1600E+00  0.1600E+00
     -6.467  0.0000E+00  0.0000E+00  0.1630E+00  0.1630E+00
     -6.427  0.0000E+00  0.0000E+00  0.1670E+00  0.1670E+00
     -6.386  0.0000E+00  0.0000E+00  0.1700E+00  0.1700E+00
     -6.346  0.0000E+00  0.0000E+00  0.1730E+00  0.1730E+00
     -6.306  0.0000E+00  0.0000E+00  0.1770E+00  0.1770E+00
     -6.266  0.0000E+00  0.0000E+00  0.1810E+00  0.1810E+00
     -6.225  0.0000E+00  0.0000E+00  0.1830E+00  0.1830E+00
     -6.185  0.0000E+00  0.0000E+00  0.1860E+00  0.1860E+00
     -6.145  0.0000E+00  0.0000E+00  0.1880E+00  0.1880E+00
     -6.105  0.0000E+00  0.0000E+00  0.1890E+00  0.1890E+00
     -6.064  0.0000E+00  0.0000E+00  0.1930E+00  0.1930E+00
     -6.024  0.0000E+00  0.0000E+00  0.1940E+00  0.1940E+00
     -5.984  0.0000E+00  0.0000E+00  0.1950E+00  0.1950E+00
     -5.944  0.0000E+00  0.0000E+00  0.1950E+00  0.1950E+00
     -5.903  0.0000E+00  0.0000E+00  0.1950E+00  0.1950E+00
     -5.863  0.0000E+00  0.0000E+00  0.1950E+00  0.1950E+00
     -5.823  0.0000E+00  0.0000E+00  0.1950E+00  0.1950E+00
     -5.783  0.0000E+00  0.0000E+00  0.1950E+00  0.1950E+00
     -5.742  0.0000E+00  0.0000E+00  0.1960E+00  0.1960E+00
     -5.702  0.0000E+00  0.0000E+00  0.1960E+00  0.1960E+00
     -5.662  0.0000E+00  0.0000E+00  0.1960E+00  0.1960E+00
     -5.622  0.0000E+00  0.0000E+00  0.1970E+00  0.1970E+00
     -5.581  0.0000E+00  0.0000E+00  0.1970E+00  0.1970E+00
     -5.541  0.0000E+00  0.0000E+00  0.1970E+00  0.1970E+00
     -5.501  0.0000E+00  0.0000E+00  0.1970E+00  0.1970E+00
     -5.461  0.0000E+00  0.0000E+00  0.1980E+00  0.1980E+00
     -5.420  0.0000E+00  0.0000E+00  0.1980E+00  0.1980E+00
     -5.380  0.0000E+00  0.0000E+00  0.1980E+00  0.1980E+00
     -5.340  0.0000E+00  0.0000E+00  0.1990E+00  0.1990E+00
     -5.300  0.0000E+00  0.0000E+00  0.1990E+00  0.1990E+00
     -5.259  0.0000E+00  0.0000E+00  0.1990E+00  0.1990E+00
     -5.219  0.0000E+00  0.0000E+00  0.1990E+00  0.1990E+00
     -5.179  0.0000E+00  0.0000E+00  0.1990E+00  0.1990E+00
     -5.139  0.0000E+00  0.0000E+00  0.2000E+00  0.2000E+00
     -5.098  0.0000E+00  0.0000E+00  0.2000E+00  0.2000E+00
     -5.058  0.0000E+00  0.0000E+00  0.2000E+00  0.2000E+00
     -5.018  0.0000E+00  0.0000E+00  0.2000E+00  0.2000E+00
     -4.978  0.0000E+00  0.0000E+00  0.2000E+00  0.2000E+00
     -4.937  0.0000E+00  0.0000E+00  0.2000E+00  0.2000E+00
     -4.897  0.0000E+00  0.0000E+00  0.2010E+00  0.2010E+00
     -4.857  0.0000E+00  0.0000E+00  0.2010E+00  0.2010E+00
     -4.817  0.0000E+00  0.0000E+00  0.2010E+00  0.2010E+00
     -4.776  0.0000E+00  0.0000E+00  0.2010E+00  0.2010E+00
     -4.736  0.0000E+00  0.0000E+00  0.2010E+00  0.2010E+00
     -4.696  0.0000E+00  0.0000E+00  0.2010E+00  0.2010E+00
     -4.656  0.0000E+00  0.0000E+00  0.2010E+00  0.2010E+00
     -4.615  0.0000E+00  0.0000E+00  0.2020E+00  0.2020E+00
     -4.575  0.0000E+00  0.0000E+00  0.2020E+00  0.2020E+00
     -4.535  0.0000E+00  0.0000E+00  0.2020E+00  0.2020E+00
     -4.495  0.0000E+00  0.0000E+00  0.2020E+00  0.2020E+00
     -4.454  0.0000E+00  0.0000E+00  0.2020E+00  0.2020E+00
     -4.414  0.0000E+00  0.0000E+00  0.2020E+00  0.2020E+00
     -4.374  0.0000E+00  0.0000E+00  0.2020E+00  0.2020E+00
     -4.334  0.0000E+00  0.0000E+00  0.2020E+00  0.2020E+00
     -4.293  0.0000E+00  0.0000E+00  0.2020E+00  0.2020E+00
     -4.253  0.0000E+00  0.0000E+00  0.2030E+00  0.2030E+00
     -4.213  0.0000E+00  0.0000E+00  0.2030E+00  0.2030E+00
     -4.173  0.0000E+00  0.0000E+00  0.2030E+00  0.2030E+00
     -4.132  0.0000E+00  0.0000E+00  0.2030E+00  0.2030E+00
     -4.092  0.0000E+00  0.0000E+00  0.2040E+00  0.2040E+00
     -4.052  0.0000E+00  0.0000E+00  0.2040E+00  0.2040E+00
     -4.012  0.0000E+00  0.0000E+00  0.2050E+00  0.2050E+00
     -3.971  0.0000E+00  0.0000E+00  0.2050E+00  0.2050E+00
     -3.931  0.0000E+00  0.0000E+00  0.2050E+00  0.2050E+00
     -3.891  0.0000E+00  0.0000E+00  0.2060E+00  0.2060E+00
     -3.851  0.0000E+00  0.0000E+00  0.2060E+00  0.2060E+00
     -3.810  0.0000E+00  0.0000E+00  0.2070E+00  0.2070E+00
     -3.770  0.0000E+00  0.0000E+00  0.2070E+00  0.2070E+00
     -3.730  0.0000E+00  0.0000E+00  0.2070E+00  0.2070E+00
     -3.690  0.0000E+00  0.0000E+00  0.2070E+00  0.2070E+00
     -3.649  0.0000E+00  0.0000E+00  0.2070E+00  0.2070E+00
     -3.609  0.0000E+00  0.0000E+00  0.2080E+00  0.2080E+00
     -3.569  0.0000E+00  0.0000E+00  0.2080E+00  0.2080E+00
     -3.529  0.0000E+00  0.0000E+00  0.2080E+00  0.2080E+00
     -3.488  0.0000E+00  0.0000E+00  0.2080E+00  0.2080E+00
     -3.448  0.0000E+00  0.0000E+00  0.2080E+00  0.2080E+00
     -3.408  0.0000E+00  0.0000E+00  0.2080E+00  0.2080E+00
     -3.368  0.0000E+00  0.0000E+00  0.2090E+00  0.2090E+00
     -3.327  0.0000E+00  0.0000E+00  0.2090E+00  0.2090E+00
     -3.287  0.0000E+00  0.0000E+00  0.2090E+00  0.2090E+00
     -3.247  0.0000E+00  0.0000E+00  0.2090E+00  0.2090E+00
     -3.207  0.0000E+00  0.0000E+00  0.2090E+00  0.2090E+00
     -3.166  0.0000E+00  0.0000E+00  0.2090E+00  0.2090E+00
     -3.126  0.0000E+00  0.0000E+00  0.2100E+00  0.2100E+00
     -3.086  0.0000E+00  0.0000E+00  0.2100E+00  0.2100E+00
     -3.046  0.0000E+00  0.0000E+00  0.2110E+00  0.2110E+00
     -3.005  0.0000E+00  0.0000E+00  0.2110E+00  0.2110E+00
     -2.965  0.0000E+00  0.0000E+00  0.2110E+00  0.2110E+00
     -2.925  0.0000E+00  0.0000E+00  0.2110E+00  0.2110E+00
     -2.885  0.0000E+00  0.0000E+00  0.2110E+00  0.2110E+00
     -2.844  0.0000E+00  0.0000E+00  0.2110E+00  0.2110E+00
     -2.804  0.0000E+00  0.0000E+00  0.2120E+00  0.2120E+00
     -2.764  0.0000E+00  0.0000E+00  0.2120E+00  0.2120E+00
     -2.723  0.0000E+00  0.0000E+00  0.2120E+00  0.2120E+00
     -2.683  0.0000E+00  0.0000E+00  0.2120E+00  0.2120E+00
     -2.643  0.0000E+00  0.0000E+00  0.2130E+00  0.2130E+00
     -2.603  0.0000E+00  0.0000E+00  0.2130E+00  0.2130E+00
     -2.562  0.0000E+00  0.0000E+00  0.2130E+00  0.2130E+00
     -2.522  0.0000E+00  0.0000E+00  0.2140E+00  0.2140E+00
     -2.482  0.0000E+00  0.0000E+00  0.2140E+00  0.2140E+00
     -2.442  0.0000E+00  0.0000E+00  0.2150E+00  0.2150E+00
     -2.401  0.0000E+00  0.0000E+00  0.2150E+00  0.2150E+00
     -2.361  0.0000E+00  0.0000E+00  0.2150E+00  0.2150E+00
     -2.321  0.0000E+00  0.0000E+00  0.2150E+00  0.2150E+00
     -2.281  0.0000E+00  0.0000E+00  0.2160E+00  0.2160E+00
     -2.240  0.0000E+00  0.0000E+00  0.2160E+00  0.2160E+00
     -2.200  0.0000E+00  0.0000E+00  0.2160E+00  0.2160E+00
     -2.160  0.0000E+00  0.0000E+00  0.2170E+00  0.2170E+00
     -2.120  0.0000E+00  0.0000E+00  0.2170E+00  0.2170E+00
     -2.079  0.0000E+00  0.0000E+00  0.2180E+00  0.2180E+00
     -2.039  0.0000E+00  0.0000E+00  0.2190E+00  0.2190E+00
     -1.999  0.0000E+00  0.0000E+00  0.2190E+00  0.2190E+00
     -1.959  0.0000E+00  0.0000E+00  0.2190E+00  0.2190E+00
     -1.918  0.0000E+00  0.0000E+00  0.2190E+00  0.2190E+00
     -1.878  0.0000E+00  0.0000E+00  0.2210E+00  0.2210E+00
     -1.838  0.0000E+00  0.0000E+00  0.2210E+00  0.2210E+00
     -1.798  0.0000E+00  0.0000E+00  0.2210E+00  0.2210E+00
     -1.757  0.0000E+00  0.0000E+00  0.2210E+00  0.2210E+00
     -1.717  0.0000E+00  0.0000E+00  0.2210E+00  0.2210E+00
     -1.677  0.0000E+00  0.0000E+00  0.2210E+00  0.2210E+00
     -1.637  0.0000E+00  0.0000E+00  0.2220E+00  0.2220E+00
     -1.596  0.0000E+00  0.0000E+00  0.2220E+00  0.2220E+00
     -1.556  0.0000E+00  0.0000E+00  0.2230E+00  0.2230E+00
     -1.516  0.0000E+00  0.0000E+00  0.2230E+00  0.2230E+00
     -1.476  0.0000E+00  0.0000E+00  0.2240E+00  0.2240E+00
     -1.435  0.0000E+00  0.0000E+00  0.2240E+00  0.2240E+00
     -1.395  0.0000E+00  0.0000E+00  0.2250E+00  0.2250E+00
     -1.355  0.0000E+00  0.0000E+00  0.2250E+00  0.2250E+00
     -1.315  0.0000E+00  0.0000E+00  0.2250E+00  0.2250E+00
     -1.274  0.0000E+00  0.0000E+00  0.2260E+00  0.2260E+00
     -1.234  0.0000E+00  0.0000E+00  0.2260E+00  0.2260E+00
     -1.194  0.0000E+00  0.0000E+00  0.2260E+00  0.2260E+00
     -1.154  0.0000E+00  0.0000E+00  0.2260E+00  0.2260E+00
     -1.113  0.0000E+00  0.0000E+00  0.2270E+00  0.2270E+00
     -1.073  0.0000E+00  0.0000E+00  0.2270E+00  0.2270E+00
     -1.033  0.0000E+00  0.0000E+00  0.2280E+00  0.2280E+00
     -0.993  0.0000E+00  0.0000E+00  0.2280E+00  0.2280E+00
     -0.952  0.0000E+00  0.0000E+00  0.2290E+00  0.2290E+00
     -0.912  0.0000E+00  0.0000E+00  0.2290E+00  0.2290E+00
     -0.872  0.0000E+00  0.0000E+00  0.2290E+00  0.2290E+00
     -0.832  0.0000E+00  0.0000E+00  0.2290E+00  0.2290E+00
     -0.791  0.0000E+00  0.0000E+00  0.2300E+00  0.2300E+00
     -0.751  0.0000E+00  0.0000E+00  0.2300E+00  0.2300E+00
     -0.711  0.0000E+00  0.0000E+00  0.2300E+00  0.2300E+00
     -0.671  0.0000E+00  0.0000E+00  0.2300E+00  0.2300E+00
     -0.630  0.0000E+00  0.0000E+00  0.2300E+00  0.2300E+00
     -0.590  0.0000E+00  0.0000E+00  0.2310E+00  0.2310E+00
     -0.550  0.0000E+00  0.0000E+00  0.2310E+00  0.2310E+00
     -0.510  0.0000E+00  0.0000E+00  0.2320E+00  0.2320E+00
     -0.469  0.0000E+00  0.0000E+00  0.2330E+00  0.2330E+00
     -0.429  0.0000E+00  0.0000E+00  0.2340E+00  0.2340E+00
     -0.389  0.0000E+00  0.0000E+00  0.2340E+00  0.2340E+00
     -0.349  0.0000E+00  0.0000E+00  0.2340E+00  0.2340E+00
     -0.308  0.0000E+00  0.0000E+00  0.2350E+00  0.2350E+00
     -0.268  0.2484E-01  0.2484E-01  0.2360E+00  0.2360E+00
     -0.228  0.0000E+00  0.0000E+00  0.2360E+00  0.2360E+00
     -0.188  0.0000E+00  0.0000E+00  0.2370E+00  0.2370E+00
     -0.147  0.0000E+00  0.0000E+00  0.2370E+00  0.2370E+00
     -0.107  0.1917E-01  0.1906E-01  0.2378E+00  0.2378E+00
     -0.067  0.0000E+00  0.0000E+00  0.2380E+00  0.2380E+00
     -0.027  0.0000E+00  0.0000E+00  0.2380E+00  0.2380E+00
      0.014  0.0000E+00  0.0000E+00  0.2390E+00  0.2390E+00
      0.054  0.0000E+00  0.0000E+00  0.2400E+00  0.2400E+00
      0.094  0.0000E+00  0.0000E+00  0.2400E+00  0.2400E+00
      0.134  0.0000E+00  0.0000E+00  0.2410E+00  0.2410E+00
      0.175  0.0000E+00  0.0000E+00  0.2410E+00  0.2410E+00
      0.215  0.0000E+00  0.0000E+00  0.2410E+00  0.2410E+00
      0.255  0.0000E+00  0.0000E+00  0.2420E+00  0.2420E+00
      0.295  0.0000E+00  0.0000E+00  0.2420E+00  0.2420E+00
      0.336  0.0000E+00  0.0000E+00  0.2430E+00  0.2430E+00
      0.376  0.0000E+00  0.0000E+00  0.2440E+00  0.2440E+00
      0.416  0.0000E+00  0.0000E+00  0.2440E+00  0.2440E+00
      0.456  0.0000E+00  0.0000E+00  0.2450E+00  0.2450E+00
      0.497  0.0000E+00  0.0000E+00  0.2450E+00  0.2450E+00
      0.537  0.0000E+00  0.0000E+00  0.2450E+00  0.2450E+00
      0.577  0.0000E+00  0.0000E+00  0.2450E+00  0.2450E+00
      0.617  0.0000E+00  0.0000E+00  0.2460E+00  0.2460E+00
      0.658  0.0000E+00  0.0000E+00  0.2470E+00  0.2470E+00
      0.698  0.0000E+00  0.0000E+00  0.2480E+00  0.2480E+00
      0.738  0.0000E+00  0.0000E+00  0.2480E+00  0.2480E+00
      0.778  0.0000E+00  0.0000E+00  0.2490E+00  0.2490E+00
      0.819  0.0000E+00  0.0000E+00  0.2510E+00  0.2510E+00
      0.859  0.0000E+00  0.0000E+00  0.2510E+00  0.2510E+00
      0.899  0.0000E+00  0.0000E+00  0.2530E+00  0.2530E+00
      0.939  0.0000E+00  0.0000E+00  0.2540E+00  0.2540E+00
      0.980  0.0000E+00  0.0000E+00  0.2550E+00  0.2550E+00
      1.020  0.0000E+00  0.0000E+00  0.2550E+00  0.2550E+00
      1.060  0.0000E+00  0.0000E+00  0.2560E+00  0.2560E+00
      1.100  0.0000E+00  0.0000E+00  0.2570E+00  0.2570E+00
      1.141  0.0000E+00  0.0000E+00  0.2580E+00  0.2580E+00
      1.181  0.0000E+00  0.0000E+00  0.2610E+00  0.2610E+00
      1.221  0.0000E+00  0.0000E+00  0.2630E+00  0.2630E+00
      1.261  0.0000E+00  0.0000E+00  0.2650E+00  0.2650E+00
      1.302  0.0000E+00  0.0000E+00  0.2660E+00  0.2660E+00
      1.342  0.0000E+00  0.0000E+00  0.2670E+00  0.2670E+00
      1.382  0.0000E+00  0.0000E+00  0.2690E+00  0.2690E+00
      1.422  0.0000E+00  0.0000E+00  0.2700E+00  0.2700E+00
      1.463  0.0000E+00  0.0000E+00  0.2700E+00  0.2700E+00
      1.503  0.0000E+00  0.0000E+00  0.2720E+00  0.2720E+00
      1.543  0.0000E+00  0.0000E+00  0.2720E+00  0.2720E+00
      1.583  0.0000E+00  0.0000E+00  0.2720E+00  0.2720E+00
      1.624  0.0000E+00  0.0000E+00  0.2720E+00  0.2720E+00
      1.664  0.0000E+00  0.0000E+00  0.2720E+00  0.2720E+00
      1.704  0.0000E+00  0.0000E+00  0.2720E+00  0.2720E+00
      1.745  0.0000E+00  0.0000E+00  0.2720E+00  0.2720E+00
      1.785  0.0000E+00  0.0000E+00  0.2720E+00  0.2720E+00
      1.825  0.0000E+00  0.0000E+00  0.2720E+00  0.2720E+00
      1.865  0.0000E+00  0.0000E+00  0.2720E+00  0.2720E+00
      1.906  0.0000E+00  0.0000E+00  0.2720E+00  0.2720E+00
      1.946  0.0000E+00  0.0000E+00  0.2720E+00  0.2720E+00
      1.986  0.0000E+00  0.0000E+00  0.2720E+00  0.2720E+00
      2.026  0.0000E+00  0.0000E+00  0.2720E+00  0.2720E+00
