37
Energy = -78.85618197 eV
Ag 10.989343093717263 16.255698507181457 15.939359851815952
Ag 11.469960443933475 16.264761261001457 10.286232495582107
Ag 11.050375907852686 16.190687020892433 13.11046146264436
Ag 9.76925754006183 14.197936744540124 14.453109796842567
Ag 10.245700143609646 14.173871465902945 8.709113455672684
Ag 12.443820680779009 13.921096504058216 15.682992765928772
Ag 13.430446253683698 16.333170907694836 14.553971129470721
Ag 9.853880866644275 14.302224960057908 11.444939221510557
Ag 13.648417296185054 15.395111922129173 11.90227213069215
Ag 12.824998194790103 13.9085180888661 9.70532748075099
Ag 12.127354630706586 13.15587245432433 12.934947221796085
Ag 9.046489262477754 12.068676679805144 12.780151700698573
Ag 8.076072900532376 12.117317301686478 15.376047884410063
Ag 9.245845607319254 12.050599647498956 7.217904623328359
Ag 8.543997547906091 12.116387569633877 9.911975585406408
Ag 11.158742117629327 11.663095157150407 10.801049635568228
Ag 12.019731526453787 12.089028417208498 7.728386142231417
Ag 10.82633624966821 11.692491809142725 15.160969267937576
Ag 14.838224999177775 12.970285955800371 11.324955766294062
Ag 9.04396921776282 9.690670192835789 11.291992451951632
Ag 14.773674028428777 13.811427991995494 14.057803970166942
Ag 10.316457567605557 10.000754035017907 8.734997750118064
Ag 9.034922520671241 9.698151994404235 14.3134335348323
Ag 14.811198495386307 12.341228107317889 8.525351463924187
Ag 11.847544120659306 9.22705952499969 14.3132500001908
Ag 15.913012691242095 10.56540624259807 10.440301460606413
Ag 13.596186981581287 11.402068951072966 14.968287189847068
Ag 10.037838423429653 7.570167935430447 12.877782561915184
Ag 13.348327041327758 10.635302791436027 12.22559511096259
Ag 15.92448366877383 11.2630542620783 13.33413184758257
Ag 11.63440329074541 8.660911195898423 10.885528365828664
Ag 13.291129591099695 10.220570894507562 9.315473253408124
Ag 14.646541201709837 8.818218669874742 14.049343261901504
Ag 12.781591560146612 7.016766240700985 12.878386053310958
Ag 16.888765482603553 8.760170771544894 12.371089318523584
Ag 14.476516681008995 8.277463204958142 11.088122860841116
Ag 12.860272372126275 18.00960481819103 12.140792124944285
