       N       E                     dE             d eps       ncg     rms          rms(c)
DAV:   1     0.697151106581E+03    0.69715E+03   -0.18564E+04   296   0.608E+02
DAV:   2     0.145643375465E+03   -0.55151E+03   -0.49138E+03   304   0.212E+02
DAV:   3    -0.287333118542E+01   -0.14852E+03   -0.13773E+03   368   0.124E+02
DAV:   4    -0.259162979504E+02   -0.23043E+02   -0.20916E+02   352   0.851E+01
DAV:   5    -0.267410916205E+02   -0.82479E+00   -0.82183E+00   336   0.152E+01    0.251E+01
DAV:   6    -0.702547175015E+01    0.19716E+02   -0.10448E+02   312   0.793E+01    0.102E+01
DAV:   7    -0.721113721081E+01   -0.18567E+00   -0.25174E+01   336   0.511E+01    0.382E+00
DAV:   8    -0.862114416332E+01   -0.14100E+01   -0.25841E+00   368   0.297E+01    0.298E+00
DAV:   9    -0.104072162011E+02   -0.17861E+01   -0.78738E-01   392   0.215E+01    0.195E+00
DAV:  10    -0.151496377165E+02   -0.47424E+01   -0.25280E+00   360   0.100E+01    0.281E+00
DAV:  11    -0.147917887332E+02    0.35785E+00   -0.12655E-01   344   0.356E+00    0.266E+00
DAV:  12    -0.147297143945E+02    0.62074E-01   -0.50957E-02   360   0.292E+00    0.300E+00
DAV:  13    -0.163451259234E+02   -0.16154E+01   -0.62404E-01   368   0.429E+00    0.199E+00
DAV:  14    -0.195123952484E+02   -0.31673E+01   -0.15121E+00   368   0.685E+00    0.110E+00
DAV:  15    -0.210757505773E+02   -0.15634E+01   -0.47434E-01   408   0.541E+00    0.728E-01
DAV:  16    -0.224490426001E+02   -0.13733E+01   -0.43026E-01   360   0.369E+00    0.446E-01
DAV:  17    -0.233409359956E+02   -0.89189E+00   -0.21774E-01   344   0.216E+00    0.237E-01
DAV:  18    -0.237047638196E+02   -0.36383E+00   -0.28954E-02   376   0.168E+00    0.221E-01
DAV:  19    -0.239634702168E+02   -0.25871E+00   -0.10407E-02   416   0.137E+00    0.143E-01
DAV:  20    -0.241111070105E+02   -0.14764E+00   -0.75787E-03   400   0.859E-01    0.540E-02
DAV:  21    -0.241314587668E+02   -0.20352E-01   -0.10990E-03   368   0.389E-01    0.419E-02
DAV:  22    -0.241475215006E+02   -0.16063E-01   -0.10719E-03   320   0.341E-01    0.349E-02
DAV:  23    -0.241508226037E+02   -0.33011E-02   -0.52421E-04   272   0.257E-01    0.230E-02
DAV:  24    -0.241513824514E+02   -0.55985E-03   -0.23841E-04   248   0.148E-01    0.158E-02
DAV:  25    -0.241523026129E+02   -0.92016E-03   -0.18231E-04   232   0.110E-01    0.123E-02
DAV:  26    -0.241533789506E+02   -0.10763E-02   -0.11795E-04   208   0.125E-01    0.102E-02
DAV:  27    -0.241538475094E+02   -0.46856E-03   -0.57416E-05   224   0.848E-02    0.642E-03
DAV:  28    -0.241540691509E+02   -0.22164E-03   -0.38881E-05   224   0.523E-02    0.588E-03
DAV:  29    -0.241542017618E+02   -0.13261E-03   -0.22297E-05   200   0.542E-02    0.495E-03
DAV:  30    -0.241541794021E+02    0.22360E-04   -0.11583E-05   216   0.371E-02
   1 F= -.24154179E+02 E0= -.24154179E+02  d E =-.241542E+02  mag=     0.0003
       N       E                     dE             d eps       ncg     rms          rms(c)
DAV:   1    -0.241567655147E+02   -0.25638E-02   -0.16670E-01   320   0.155E+00    0.285E-02
DAV:   2    -0.241570490648E+02   -0.28355E-03   -0.25955E-03   440   0.346E-01    0.240E-02
DAV:   3    -0.241570572365E+02   -0.81717E-05   -0.39505E-05   192   0.143E-01
   2 F= -.24157057E+02 E0= -.24157057E+02  d E =-.287783E-02  mag=     0.0002
       N       E                     dE             d eps       ncg     rms          rms(c)
DAV:   1    -0.241616385739E+02   -0.45895E-02   -0.15046E+00   312   0.465E+00    0.945E-02
DAV:   2    -0.241638788131E+02   -0.22402E-02   -0.23915E-02   440   0.105E+00    0.819E-02
DAV:   3    -0.241638135362E+02    0.65277E-04   -0.41748E-04   304   0.395E-01
   3 F= -.24163814E+02 E0= -.24163814E+02  d E =-.963413E-02  mag=     0.0002
       N       E                     dE             d eps       ncg     rms          rms(c)
DAV:   1    -0.241605889478E+02    0.32899E-02   -0.60183E+00   312   0.932E+00    0.203E-01
DAV:   2    -0.241695774910E+02   -0.89885E-02   -0.97937E-02   440   0.218E+00    0.189E-01
DAV:   3    -0.241691679776E+02    0.40951E-03   -0.24263E-03   336   0.109E+00    0.130E-01
DAV:   4    -0.241691119462E+02    0.56031E-04   -0.57356E-04   280   0.556E-01
   4 F= -.24169112E+02 E0= -.24169112E+02  d E =-.149325E-01  mag=     0.0001
       N       E                     dE             d eps       ncg     rms          rms(c)
DAV:   1    -0.241698051775E+02   -0.63720E-03   -0.18525E-01   328   0.168E+00    0.375E-02
DAV:   2    -0.241700738700E+02   -0.26869E-03   -0.30256E-03   432   0.450E-01    0.283E-02
DAV:   3    -0.241700807766E+02   -0.69066E-05   -0.21403E-04   216   0.309E-01
   5 F= -.24170081E+02 E0= -.24170081E+02  d E =-.968830E-03  mag=     0.0000
       N       E                     dE             d eps       ncg     rms          rms(c)
DAV:   1    -0.241695848606E+02    0.48901E-03   -0.15490E+00   304   0.471E+00    0.856E-02
DAV:   2    -0.241717271657E+02   -0.21423E-02   -0.22641E-02   432   0.121E+00    0.948E-02
DAV:   3    -0.241716733436E+02    0.53822E-04   -0.10620E-03   288   0.631E-01    0.616E-02
DAV:   4    -0.241716572759E+02    0.16068E-04   -0.15854E-04   192   0.242E-01
   6 F= -.24171657E+02 E0= -.24171657E+02  d E =-.254533E-02  mag=     0.0000
       N       E                     dE             d eps       ncg     rms          rms(c)
DAV:   1    -0.241721770397E+02   -0.50370E-03   -0.31718E-01   296   0.215E+00    0.387E-02
DAV:   2    -0.241726215670E+02   -0.44453E-03   -0.45922E-03   432   0.484E-01    0.428E-02
DAV:   3    -0.241726059761E+02    0.15591E-04   -0.13109E-04   192   0.263E-01
   7 F= -.24172606E+02 E0= -.24172606E+02  d E =-.948700E-03  mag=     0.0000
       N       E                     dE             d eps       ncg     rms          rms(c)
DAV:   1    -0.241722959358E+02    0.32563E-03   -0.12046E+00   304   0.418E+00    0.643E-02
DAV:   2    -0.241740209049E+02   -0.17250E-02   -0.17801E-02   424   0.885E-01    0.813E-02
DAV:   3    -0.241739499696E+02    0.70935E-04   -0.18209E-04   208   0.234E-01
   8 F= -.24173950E+02 E0= -.24173950E+02  d E =-.229269E-02  mag=     0.0000
       N       E                     dE             d eps       ncg     rms          rms(c)
DAV:   1    -0.241742716657E+02   -0.25076E-03   -0.22260E-01   320   0.180E+00    0.545E-02
DAV:   2    -0.241745068917E+02   -0.23523E-03   -0.28647E-03   400   0.436E-01    0.483E-02
DAV:   3    -0.241744914887E+02    0.15403E-04   -0.21609E-04   176   0.260E-01
   9 F= -.24174491E+02 E0= -.24174491E+02  d E =-.541519E-03  mag=     0.0000
       N       E                     dE             d eps       ncg     rms          rms(c)
DAV:   1    -0.241734054233E+02    0.11015E-02   -0.19894E+00   304   0.536E+00    0.919E-02
DAV:   2    -0.241761405942E+02   -0.27352E-02   -0.28477E-02   432   0.137E+00    0.119E-01
DAV:   3    -0.241760026294E+02    0.13796E-03   -0.11290E-03   328   0.736E-01    0.721E-02
DAV:   4    -0.241759749504E+02    0.27679E-04   -0.16816E-04   176   0.232E-01
  10 F= -.24175975E+02 E0= -.24175975E+02  d E =-.202498E-02  mag=     0.0000
       N       E                     dE             d eps       ncg     rms          rms(c)
DAV:   1    -0.241759598144E+02    0.42815E-04   -0.52345E-01   304   0.276E+00    0.516E-02
DAV:   2    -0.241766906276E+02   -0.73081E-03   -0.76898E-03   432   0.656E-01    0.566E-02
DAV:   3    -0.241766568461E+02    0.33781E-04   -0.25834E-04   208   0.380E-01
  11 F= -.24176657E+02 E0= -.24176657E+02  d E =-.681896E-03  mag=     0.0000
       N       E                     dE             d eps       ncg     rms          rms(c)
DAV:   1    -0.241767069677E+02   -0.16340E-04   -0.50753E-02   304   0.868E-01    0.319E-02
DAV:   2    -0.241767619123E+02   -0.54945E-04   -0.70258E-04   288   0.203E-01
  12 F= -.24176762E+02 E0= -.24176762E+02  d E =-.786962E-03  mag=     0.0000
