   45   45 1000    2
  0.2652816E+03  0.2285458E-08  0.2285458E-08  0.2285458E-08  0.1000000E-15
  1.000000000000000E-004
  CAR 
 unknown system                          
    495      1    320
 
  0.0000000E+00  0.0000000E+00  0.0000000E+00  0.1000000E+01
    1       -9.790469     -9.777052
    2       -9.287322     -9.277347
    3       -9.206214     -9.197930
    4       -9.186857     -9.173786
    5       -9.150935     -9.141595
    6       -9.054532     -9.046773
    7       -9.016027     -9.008964
    8       -8.981991     -8.972801
    9       -8.957640     -8.950207
   10       -8.924947     -8.918226
   11       -8.894084     -8.886699
   12       -8.878718     -8.867256
   13       -8.861182     -8.852975
   14       -8.831878     -8.823696
   15       -8.815486     -8.807833
   16       -8.798585     -8.787602
   17       -8.770754     -8.762070
   18       -8.744978     -8.736979
   19       -8.733566     -8.723780
   20       -8.711944     -8.702710
   21       -8.678834     -8.669179
   22       -8.668166     -8.659209
   23       -8.625846     -8.617595
   24       -8.608451     -8.600429
   25       -8.593389     -8.587277
   26       -8.582480     -8.576013
   27       -8.557056     -8.550535
   28       -8.545017     -8.538474
   29       -8.533971     -8.524727
   30       -8.519963     -8.512538
   31       -8.509053     -8.501694
   32       -8.485136     -8.475615
   33       -8.468119     -8.461054
   34       -8.453451     -8.442717
   35       -8.437775     -8.428583
   36       -8.427979     -8.420989
   37       -8.416850     -8.409046
   38       -8.402644     -8.397668
   39       -8.371344     -8.363896
   40       -8.362439     -8.354349
   41       -8.355137     -8.346515
   42       -8.328994     -8.320776
   43       -8.295352     -8.288714
   44       -8.293170     -8.284722
   45       -8.271521     -8.264935
   46       -8.265770     -8.257993
   47       -8.260215     -8.252012
   48       -8.233148     -8.227357
   49       -8.230394     -8.222429
   50       -8.214330     -8.209016
   51       -8.207767     -8.203086
   52       -8.193313     -8.185825
   53       -8.170347     -8.160998
   54       -8.157961     -8.151257
   55       -8.144051     -8.134687
   56       -8.140382     -8.132021
   57       -8.119369     -8.111601
   58       -8.106335     -8.100252
   59       -8.091799     -8.083669
   60       -8.077688     -8.071303
   61       -8.065525     -8.058021
   62       -8.051831     -8.042535
   63       -8.042086     -8.034729
   64       -8.026919     -8.018392
   65       -8.008034     -8.000077
   66       -7.997307     -7.989120
   67       -7.989966     -7.981468
   68       -7.975086     -7.966310
   69       -7.972132     -7.965427
   70       -7.935472     -7.926913
   71       -7.928276     -7.921539
   72       -7.908458     -7.900709
   73       -7.896874     -7.888685
   74       -7.895455     -7.885777
   75       -7.872476     -7.864646
   76       -7.863133     -7.855673
   77       -7.855102     -7.848446
   78       -7.820963     -7.812257
   79       -7.816572     -7.808394
   80       -7.815101     -7.807758
   81       -7.799057     -7.792084
   82       -7.776851     -7.770231
   83       -7.766692     -7.759866
   84       -7.741217     -7.732898
   85       -7.730366     -7.722608
   86       -7.715222     -7.708521
   87       -7.708841     -7.701949
   88       -7.686486     -7.680337
   89       -7.677306     -7.671238
   90       -7.660874     -7.655246
   91       -7.642476     -7.635362
   92       -7.632915     -7.626653
   93       -7.598408     -7.593079
   94       -7.584595     -7.578415
   95       -7.576852     -7.570511
   96       -7.559371     -7.554304
   97       -7.551752     -7.545586
   98       -7.526078     -7.519950
   99       -7.523371     -7.516850
  100       -7.513351     -7.507002
  101       -7.497991     -7.490285
  102       -7.493647     -7.486766
  103       -7.487107     -7.481955
  104       -7.474492     -7.467874
  105       -7.462443     -7.455141
  106       -7.453092     -7.446545
  107       -7.431214     -7.425316
  108       -7.423690     -7.416396
  109       -7.401697     -7.394308
  110       -7.390032     -7.383653
  111       -7.385958     -7.378613
  112       -7.365853     -7.358775
  113       -7.346213     -7.340566
  114       -7.336431     -7.329505
  115       -7.312830     -7.306760
  116       -7.311234     -7.304029
  117       -7.281884     -7.275734
  118       -7.276069     -7.270402
  119       -7.275702     -7.269909
  120       -7.256013     -7.250257
  121       -7.246695     -7.239101
  122       -7.230063     -7.223555
  123       -7.215758     -7.209076
  124       -7.199345     -7.193688
  125       -7.190790     -7.183698
  126       -7.179376     -7.173704
  127       -7.164298     -7.158634
  128       -7.146704     -7.141199
  129       -7.126280     -7.121306
  130       -7.124358     -7.118936
  131       -7.113238     -7.107432
  132       -7.101653     -7.095987
  133       -7.091501     -7.085504
  134       -7.071353     -7.064839
  135       -7.050962     -7.045171
  136       -7.046480     -7.039616
  137       -7.031727     -7.026290
  138       -7.026308     -7.019756
  139       -7.009339     -7.004086
  140       -7.008298     -7.002298
  141       -6.976783     -6.971969
  142       -6.959998     -6.954602
  143       -6.954978     -6.949037
  144       -6.942972     -6.935814
  145       -6.928036     -6.923251
  146       -6.923924     -6.918667
  147       -6.912934     -6.907266
  148       -6.904289     -6.897851
  149       -6.885318     -6.880704
  150       -6.867667     -6.861957
  151       -6.854369     -6.847139
  152       -6.840633     -6.834700
  153       -6.835412     -6.829197
  154       -6.819895     -6.814177
  155       -6.814238     -6.809021
  156       -6.800549     -6.794915
  157       -6.781774     -6.776600
  158       -6.774447     -6.768436
  159       -6.772656     -6.766664
  160       -6.762025     -6.756308
  161       -6.746694     -6.739888
  162       -6.743470     -6.738532
  163       -6.734437     -6.729047
  164       -6.724409     -6.717389
  165       -6.712720     -6.707550
  166       -6.702235     -6.695464
  167       -6.683027     -6.677540
  168       -6.676324     -6.669253
  169       -6.672215     -6.665648
  170       -6.661024     -6.653766
  171       -6.654904     -6.648250
  172       -6.647630     -6.642439
  173       -6.645802     -6.639889
  174       -6.633377     -6.627112
  175       -6.622966     -6.617024
  176       -6.612440     -6.605520
  177       -6.604888     -6.599594
  178       -6.593426     -6.587007
  179       -6.588225     -6.581660
  180       -6.579040     -6.573078
  181       -6.572256     -6.566450
  182       -6.559154     -6.552418
  183       -6.553086     -6.546983
  184       -6.543140     -6.536551
  185       -6.531125     -6.526557
  186       -6.530261     -6.523673
  187       -6.526204     -6.517803
  188       -6.510367     -6.503657
  189       -6.497736     -6.492364
  190       -6.494802     -6.489225
  191       -6.485769     -6.479780
  192       -6.475757     -6.470291
  193       -6.468838     -6.463314
  194       -6.462048     -6.455696
  195       -6.456662     -6.449607
  196       -6.444076     -6.437180
  197       -6.432066     -6.425877
  198       -6.428024     -6.421280
  199       -6.411318     -6.404993
  200       -6.409096     -6.402189
  201       -6.404113     -6.398383
  202       -6.396610     -6.389612
  203       -6.384480     -6.379446
  204       -6.378806     -6.374183
  205       -6.370299     -6.364103
  206       -6.361968     -6.354713
  207       -6.341625     -6.334524
  208       -6.336463     -6.330176
  209       -6.326384     -6.320385
  210       -6.321204     -6.315953
  211       -6.318118     -6.311147
  212       -6.311600     -6.305757
  213       -6.295183     -6.289566
  214       -6.269633     -6.262702
  215       -6.254506     -6.249032
  216       -6.243823     -6.237807
  217       -6.234459     -6.229155
  218       -6.219696     -6.214889
  219       -6.218783     -6.213469
  220       -6.199566     -6.194143
  221       -6.187488     -6.180813
  222       -6.173701     -6.166911
  223       -6.165579     -6.159130
  224       -6.152479     -6.147585
  225       -6.127755     -6.120793
  226       -6.107504     -6.103373
  227       -6.102624     -6.095843
  228       -6.093903     -6.086882
  229       -6.061721     -6.049645
  230       -6.055727     -6.044840
  231       -6.046824     -6.037852
  232       -5.924060     -5.911222
  233       -5.842989     -5.832450
  234       -5.709638     -5.697505
  235       -5.417718     -5.405908
  236       -5.012956     -4.983415
  237       -4.903826     -4.883378
  238       -4.839426     -4.814821
  239       -4.726928     -4.708040
  240       -4.500553     -4.480900
  241       -4.441689     -4.423638
  242       -4.227217     -4.212302
  243       -4.103004     -4.086169
  244       -3.772534     -3.760094
  245       -3.739236     -3.719074
  246       -3.493233     -3.471365
  247       -3.402480     -3.383183
  248       -3.279487     -3.200592
  249       -3.123847     -3.107109
  250       -3.001903     -2.984982
  251       -2.727582     -2.704537
  252       -2.681506     -2.667743
  253       -2.578714     -2.555816
  254       -2.446742     -2.424922
  255       -2.425069     -2.400639
  256       -2.331525     -2.309739
  257       -2.221516     -2.205400
  258       -2.062160     -2.045338
  259       -2.033868     -2.016205
  260       -1.972854     -1.956231
  261       -1.853192     -1.811967
  262       -1.783091     -1.733713
  263       -1.641375     -1.618950
  264       -1.601828     -1.580224
  265       -1.457270     -1.420513
  266       -1.279949     -1.261396
  267       -1.227627     -1.209693
  268       -1.150526     -1.132097
  269       -1.039311     -1.018964
  270       -1.016697     -0.996048
  271       -0.876273     -0.864247
  272       -0.797187     -0.778630
  273       -0.762702     -0.742690
  274       -0.694683     -0.676494
  275       -0.581330     -0.560399
  276       -0.516804     -0.500265
  277       -0.402926     -0.382792
  278       -0.311593     -0.294224
  279       -0.265573     -0.242135
  280       -0.179858     -0.154234
  281       -0.141352     -0.123873
  282       -0.072891     -0.048922
  283        0.036154      0.050420
  284        0.056759      0.078187
  285        0.156488      0.185158
  286        0.208072      0.246509
  287        0.302668      0.332962
  288        0.477942      0.514295
  289        0.529832      0.561353
  290        0.611543      0.625166
  291        0.672005      0.689702
  292        0.740689      0.756469
  293        0.767733      0.785644
  294        0.785939      0.803038
  295        0.877480      0.893668
  296        0.886929      0.906299
  297        0.916360      0.932983
  298        0.951842      0.969734
  299        0.978528      0.986278
  300        1.006611      1.023669
  301        1.026283      1.031528
  302        1.072804      1.079288
  303        1.088675      1.099464
  304        1.100619      1.116093
  305        1.123832      1.130530
  306        1.125727      1.145373
  307        1.149794      1.150866
  308        1.158129      1.176475
  309        1.206320      1.213117
  310        1.239715      1.243869
  311        1.261948      1.286183
  312        1.287117      1.297271
  313        1.326889      1.346324
  314        1.350393      1.356581
  315        1.368817      1.375274
  316        1.388642      1.398740
  317        1.419177      1.420823
  318        1.429439      1.434491
  319        1.448343      1.460069
  320        1.463323      1.483866
