   15   15 1000    2
  0.5115346E+03  0.1972372E-08  0.1972372E-08  0.1972372E-08  0.1000000E-15
  1.000000000000000E-004
  CAR 
 unknown system                          
    165      1    108
 
  0.0000000E+00  0.0000000E+00  0.0000000E+00  0.1000000E+01
    1       -9.320499     -9.301434
    2       -9.096397     -9.080777
    3       -9.010128     -8.995414
    4       -9.006250     -8.990574
    5       -8.975665     -8.955795
    6       -8.892412     -8.873585
    7       -8.853452     -8.840343
    8       -8.847985     -8.826907
    9       -8.798878     -8.779265
   10       -8.772757     -8.755868
   11       -8.634353     -8.618519
   12       -8.602481     -8.587237
   13       -8.566617     -8.550921
   14       -8.453325     -8.430070
   15       -8.429126     -8.407441
   16       -8.415689     -8.396288
   17       -8.348618     -8.327722
   18       -8.308924     -8.283504
   19       -8.271174     -8.255112
   20       -8.232974     -8.206822
   21       -8.159538     -8.136036
   22       -8.127775     -8.109865
   23       -8.092314     -8.070310
   24       -8.082670     -8.066193
   25       -8.042024     -8.021906
   26       -7.992561     -7.975383
   27       -7.916243     -7.900358
   28       -7.890691     -7.875514
   29       -7.828462     -7.809202
   30       -7.777729     -7.760003
   31       -7.751940     -7.729773
   32       -7.690830     -7.677159
   33       -7.643622     -7.623931
   34       -7.617412     -7.604625
   35       -7.550135     -7.531145
   36       -7.498825     -7.481758
   37       -7.411756     -7.399894
   38       -7.393864     -7.376962
   39       -7.372084     -7.354568
   40       -7.326663     -7.310354
   41       -7.291893     -7.275632
   42       -7.281434     -7.266680
   43       -7.257401     -7.237858
   44       -7.218216     -7.199094
   45       -7.183954     -7.164642
   46       -7.139669     -7.121961
   47       -7.134845     -7.119270
   48       -7.117193     -7.096544
   49       -7.087428     -7.069645
   50       -7.082014     -7.067446
   51       -7.069451     -7.052952
   52       -7.055441     -7.041588
   53       -7.047178     -7.029394
   54       -7.035591     -7.020253
   55       -7.009087     -6.990606
   56       -6.968408     -6.951367
   57       -6.956501     -6.936550
   58       -6.948707     -6.930422
   59       -6.894873     -6.878779
   60       -6.850320     -6.831981
   61       -6.823167     -6.806480
   62       -6.813831     -6.798216
   63       -6.769228     -6.750219
   64       -6.732804     -6.717901
   65       -6.704579     -6.688496
   66       -6.683933     -6.667365
   67       -6.671596     -6.653966
   68       -6.651095     -6.631329
   69       -6.635880     -6.618863
   70       -6.584283     -6.566294
   71       -6.553505     -6.535804
   72       -6.544193     -6.528795
   73       -6.498210     -6.483339
   74       -6.459028     -6.447567
   75       -6.438632     -6.423974
   76       -6.429402     -6.414921
   77       -6.300831     -6.256975
   78       -6.172723     -6.143233
   79       -5.118593     -5.042388
   80       -4.729510     -4.672968
   81       -4.446540     -4.407361
   82       -4.172707     -4.140526
   83       -3.595872     -3.419825
   84       -3.162439     -3.112666
   85       -2.617012     -2.566393
   86       -2.471790     -2.424547
   87       -2.313481     -2.247394
   88       -2.193467     -2.135898
   89       -2.065080     -2.038006
   90       -1.779797     -1.661248
   91       -1.445691     -1.357046
   92       -1.212345     -1.161529
   93       -0.936341     -0.795481
   94       -0.711603     -0.656217
   95       -0.615489     -0.576505
   96       -0.585071     -0.535862
   97       -0.446829     -0.391387
   98       -0.408179     -0.370813
   99       -0.297931     -0.238067
  100       -0.021400      0.073967
  101        0.271776      0.347034
  102        0.340110      0.355924
  103        0.428248      0.510207
  104        0.517646      0.551744
  105        0.633848      0.645909
  106        0.653023      0.679974
  107        0.696515      0.728556
  108        0.757589      0.787346
