19
Energy = -36.82199190 eV
Ag 13.737857364241032 13.234190164158848 10.80639678969797
Ag 11.578318552677285 12.882690596214935 9.108045673915324
Ag 11.41753939778515 14.675344926628016 11.303166029603084
Ag 13.340292860117838 10.552410009355341 10.254059403930805
Ag 11.38876626222283 12.40080745685896 12.886034966488428
Ag 11.610546476107954 10.288756686942317 8.00309338033641
Ag 7.714301657151758 10.486617860037468 10.6175626833068
Ag 11.794108964586682 8.140875767428396 10.128710947703805
Ag 9.0515340306335 11.75474716505609 8.44282168579364
Ag 13.962979144772095 11.374903527619638 12.903712191385246
Ag 7.247194648256188 7.658487199010077 10.128106196349478
Ag 9.621035511969865 6.316431113961156 9.787753112495086
Ag 10.541699774639063 10.716261676256746 10.568264326749723
Ag 9.325941386197321 8.879208531285398 8.744633227099172
Ag 13.377019215064989 14.28845588573227 13.300981231998636
Ag 11.875921304491962 9.556143066471288 12.677960212652001
Ag 9.443042649129076 8.333417895111156 11.739158824821185
Ag 9.144074597808652 13.059766888389511 10.947084298124087
Ag 9.22659799454345 10.777947128453338 13.060344339598059
